----- GAMESS execution script 'rungms' -----
This job is running on host labodang001
under operating system Linux at Thu Jul 26 13:55:46 EDT 2018
Available scratch disk space (Kbyte units) at beginning of the job is
Filesystem     1K-blocks     Used Available Use% Mounted on
/dev/sda1       49601260 33262860  13795708  71% /
GAMESS temporary binary files will be written to /tmp
GAMESS supplementary output files will be written to /tmp
Copying input file 1e.inp to your run's scratch directory...

 Distributed Data Interface kickoff program.
 Initiating 1 compute processes on 1 nodes to run the following command:
 /opt/gamess/gamess.00.x 1e 

          ******************************************************
          *         GAMESS VERSION = 14 FEB 2018 (R1)         *
          *             FROM IOWA STATE UNIVERSITY             *
          * M.W.SCHMIDT, K.K.BALDRIDGE, J.A.BOATZ, S.T.ELBERT, *
          *   M.S.GORDON, J.H.JENSEN, S.KOSEKI, N.MATSUNAGA,   *
          *          K.A.NGUYEN, S.J.SU, T.L.WINDUS,           *
          *       TOGETHER WITH M.DUPUIS, J.A.MONTGOMERY       *
          *         J.COMPUT.CHEM.  14, 1347-1363(1993)        *
          **************** 64 BIT LINUX VERSION ****************

  SINCE 1993, STUDENTS AND POSTDOCS WORKING AT IOWA STATE UNIVERSITY
  AND ALSO IN THEIR VARIOUS JOBS AFTER LEAVING ISU HAVE MADE IMPORTANT
  CONTRIBUTIONS TO THE CODE:
     IVANA ADAMOVIC, CHRISTINE AIKENS, YURI ALEXEEV, POOJA ARORA,
     ANDREY ASADCHEV, ROB BELL, PRADIPTA BANDYOPADHYAY, JONATHAN BENTZ,
     BRETT BODE, KURT BRORSEN, CALEB CARLIN, GALINA CHABAN, WEI CHEN,
     CHEOL HO CHOI, PAUL DAY, ALBERT DEFUSCO, NUWAN DESILVA, TIM DUDLEY,
     DMITRI FEDOROV, ALEX FINDLATER, GRAHAM FLETCHER, MARK FREITAG,
     KURT GLAESEMANN, ANASTASIA GUININA,
     DAN KEMP, GRANT MERRILL, NORIYUKI MINEZAWA, JONATHAN MULLIN,
     TAKESHI NAGATA, SEAN NEDD, HEATHER NETZLOFF, BOSILJKA NJEGIC, RYAN OLSON,
     MIKE PAK, BUU PHAM,
     SPENCER PRUITT, LUKE ROSKOP, JIM SHOEMAKER, LYUDMILA SLIPCHENKO,
     TONY SMITH, SAROM SOK LEANG, JIE SONG, TETSUYA TAKETSUGU, SIMON WEBB,
     PENG XU, SOOHAENG YOO, FEDERICO ZAHARIEV

  ADDITIONAL CODE HAS BEEN PROVIDED BY COLLABORATORS IN OTHER GROUPS:
     IOWA STATE UNIVERSITY:
          JOE IVANIC, AARON WEST, LAIMUTIS BYTAUTAS, KLAUS RUEDENBERG
     UNIVERSITY OF TOKYO: KIMIHIKO HIRAO, TAKAHITO NAKAJIMA,
          TAKAO TSUNEDA, MUNEAKI KAMIYA, SUSUMU YANAGISAWA,
          KIYOSHI YAGI, MAHITO CHIBA, SEIKEN TOKURA, NAOAKI KAWAKAMI
     UNIVERSITY OF AARHUS: FRANK JENSEN
     UNIVERSITY OF IOWA: VISVALDAS KAIRYS, HUI LI
     NATIONAL INST. OF STANDARDS AND TECHNOLOGY: WALT STEVENS, DAVID GARMER
     UNIVERSITY OF PISA: BENEDETTA MENNUCCI, JACOPO TOMASI
     UNIVERSITY OF MEMPHIS: HENRY KURTZ, PRAKASHAN KORAMBATH
     UNIVERSITY OF ALBERTA: TOBY ZENG, MARIUSZ KLOBUKOWSKI
     UNIVERSITY OF NEW ENGLAND: MARK SPACKMAN
     MIE UNIVERSITY: HIROAKI UMEDA
     NAT. INST. OF ADVANCED INDUSTRIAL SCIENCE AND TECHNOLOGY: KAZUO KITAURA
     MICHIGAN STATE UNIVERSITY:
          KAROL KOWALSKI, MARTA WLOCH, JEFFREY GOUR, JESSE LUTZ,
          WEI LI, PIOTR PIECUCH
     UNIVERSITY OF SILESIA: MONIKA MUSIAL, STANISLAW KUCHARSKI
     FACULTES UNIVERSITAIRES NOTRE-DAME DE LA PAIX:
          OLIVIER QUINET, BENOIT CHAMPAGNE
     UNIVERSITY OF CALIFORNIA - SANTA BARBARA: BERNARD KIRTMAN
     INSTITUTE FOR MOLECULAR SCIENCE:
          KAZUYA ISHIMURA, MICHIO KATOUDA, AND SHIGERU NAGASE
     UNIVERSITY OF NOTRE DAME: ANNA POMOGAEVA, DAN CHIPMAN
     KYUSHU UNIVERSITY:
          HARUYUKI NAKANO,
          FENG LONG GU, JACEK KORCHOWIEC, MARCIN MAKOWSKI, AND YURIKO AOKI,
          HIROTOSHI MORI AND EISAKU MIYOSHI
     PENNSYLVANIA STATE UNIVERSITY:
          TZVETELIN IORDANOV, CHET SWALINA, JONATHAN SKONE,
          SHARON HAMMES-SCHIFFER
     WASEDA UNIVERSITY:
          MASATO KOBAYASHI, TOMOKO AKAMA, TSUGUKI TOUMA,
          TAKESHI YOSHIKAWA, YASUHIRO IKABATA, JUNJI SEINO,
          YUYA NAKAJIMA, HIROMI NAKAI
     NANJING UNIVERSITY: SHUHUA LI
     UNIVERSITY OF NEBRASKA:
          PEIFENG SU, DEJUN SI, NANDUN THELLAMUREGE, YALI WANG, HUI LI
     UNIVERSITY OF ZURICH: ROBERTO PEVERATI, KIM BALDRIDGE
     N. COPERNICUS UNIVERSITY AND JACKSON STATE UNIVERSITY:
          MARIA BARYSZ
     UNIVERSITY OF COPENHAGEN: Jimmy Kromann, CASPER STEINMANN
     TOKYO INSTITUTE OF TECHNOLOGY: HIROYA NAKATA
     NAGOYA UNIVERSITY: YOSHIO NISHIMOTO, STEPHAN IRLE
     MOSCOW STATE UNIVERSITY: VLADIMIR MIRONOV

 EXECUTION OF GAMESS BEGUN Thu Jul 26 13:55:46 2018

            ECHO OF THE FIRST FEW INPUT CARDS -
 INPUT CARD>!   File created by the GAMESS Input Deck Generator Plugin for Avogadro         
 INPUT CARD> $BASIS GBASIS=N31 NGAUSS=6 NDFUNC=1 NPFUNC=1 $END                              
 INPUT CARD> $CONTRL SCFTYP=MCSCF RUNTYP=ENERGY CITYP=GENCI ICHARG=1 MULT=2 $END            
 INPUT CARD> $CONTRL COORD=ZMT UNITS=BOHR NPRINT=3 $END                                     
 INPUT CARD> $DET NCORE=0 NACT=2 NELS=1 NSTATE=2 $END                                       
 INPUT CARD> $CIGEN NCORE=0 NACT=2 NELS=1 NSTATE=2 $END                                     
 INPUT CARD> $GUESS GUESS=MOREAD NORB=10 $END                                               
 INPUT CARD> $GCILST                                                                        
 INPUT CARD>2                                                                               
 INPUT CARD>1 0                                                                             
 INPUT CARD>0 1                                                                             
 INPUT CARD> $END                                                                           
 INPUT CARD> $VEC                                                                           
 INPUT CARD> 1  1 4.25068997E-01 1.67559781E-01-0.00000000E+00-0.00000000E+00 3.74973989E-02
 INPUT CARD> 1  2 4.25068997E-01 1.67559781E-01-0.00000000E+00-0.00000000E+00-3.74973989E-02
 INPUT CARD> 2  1 2.57164037E-01 1.49863583E+00 0.00000000E+00 0.00000000E+00-2.80405093E-02
 INPUT CARD> 2  2-2.57164037E-01-1.49863583E+00 0.00000000E+00 0.00000000E+00-2.80405093E-02
 INPUT CARD> 3  1-6.71932429E-01 7.06125261E-01 0.00000000E+00 0.00000000E+00-5.42001909E-02
 INPUT CARD> 3  2-6.71932429E-01 7.06125261E-01 0.00000000E+00 0.00000000E+00 5.42001909E-02
 INPUT CARD> 4  1-8.94261195E-01 1.62292002E+00 0.00000000E+00 0.00000000E+00 2.35666443E-01
 INPUT CARD> 4  2 8.94261195E-01-1.62292002E+00 0.00000000E+00 0.00000000E+00 2.35666443E-01
 INPUT CARD> 5  1-0.00000000E+00-0.00000000E+00 5.54737898E-01-2.55584667E-01-0.00000000E+00
 INPUT CARD> 5  2-0.00000000E+00-0.00000000E+00 5.54737898E-01-2.55584667E-01-0.00000000E+00
 INPUT CARD> 6  1-0.00000000E+00-0.00000000E+00 2.55584667E-01 5.54737898E-01-0.00000000E+00
 INPUT CARD> 6  2-0.00000000E+00-0.00000000E+00 2.55584667E-01 5.54737898E-01-0.00000000E+00
 INPUT CARD> 7  1 4.18136068E-01-2.07001641E-01-0.00000000E+00-0.00000000E+00-6.45378788E-01
 INPUT CARD> 7  2 4.18136068E-01-2.07001641E-01-0.00000000E+00-0.00000000E+00 6.45378788E-01
 INPUT CARD> 8  1-0.00000000E+00-0.00000000E+00-4.58897933E-01 7.39800438E-01-0.00000000E+00
 INPUT CARD> 8  2-0.00000000E+00-0.00000000E+00 4.58897933E-01-7.39800438E-01-0.00000000E+00
 INPUT CARD> 9  1 0.00000000E+00 0.00000000E+00-7.39800438E-01-4.58897933E-01 0.00000000E+00
 INPUT CARD> 9  2 0.00000000E+00 0.00000000E+00 7.39800438E-01 4.58897933E-01 0.00000000E+00
 INPUT CARD>10  1 1.41992244E+00 1.96752872E-01 0.00000000E+00 0.00000000E+00 1.58378842E+00
 INPUT CARD>10  2-1.41992244E+00-1.96752872E-01 0.00000000E+00 0.00000000E+00 1.58378842E+00
 INPUT CARD> $END                                                                           
 INPUT CARD> $DATA                                                                          
 INPUT CARD>Title                                                                           
 INPUT CARD>C1                                                                              
 INPUT CARD>H                                                                               
 INPUT CARD>H 1 1.4                                                                         
 INPUT CARD> $END                                                                           
    1000000 WORDS OF MEMORY AVAILABLE

     BASIS OPTIONS
     -------------
     GBASIS=N31          IGAUSS=       6      POLAR=POPN31  
     NDFUNC=       1     NFFUNC=       0     DIFFSP=       F
     NPFUNC=       1      DIFFS=       F     BASNAM=        


     RUN TITLE
     ---------
 Title                                                                           

 THE POINT GROUP OF THE MOLECULE IS C1      
 THE ORDER OF THE PRINCIPAL AXIS IS     0

 YOUR FULLY SUBSTITUTED Z-MATRIX IS
 H   
 H      1   0.7408481

 THE MOMENTS OF INERTIA ARE (AMU-ANGSTROM**2)
 IXX=     0.277   IYY=     0.277   IZZ=     0.000

 ATOM      ATOMIC                      COORDINATES (BOHR)
           CHARGE         X                   Y                   Z
 H           1.0     0.0000000000        0.0000000000       -0.7000000000
 H           1.0     0.0000000000        0.0000000000        0.7000000000

          INTERNUCLEAR DISTANCES (ANGS.)
          ------------------------------

                1 H          2 H     

   1 H       0.0000000    0.7408481 *
   2 H       0.7408481 *  0.0000000  

  * ... LESS THAN  3.000


     ATOMIC BASIS SET
     ----------------
 THE CONTRACTED PRIMITIVE FUNCTIONS HAVE BEEN UNNORMALIZED
 THE CONTRACTED BASIS FUNCTIONS ARE NOW NORMALIZED TO UNITY

  SHELL TYPE  PRIMITIVE        EXPONENT          CONTRACTION COEFFICIENT(S)

 H         

      1   S       1            18.7311370    0.033494604338
      1   S       2             2.8253944    0.234726953484
      1   S       3             0.6401217    0.813757326146

      2   S       4             0.1612778    1.000000000000

      3   P       5             1.1000000    1.000000000000

 H         

      4   S       6            18.7311370    0.033494604338
      4   S       7             2.8253944    0.234726953484
      4   S       8             0.6401217    0.813757326146

      5   S       9             0.1612778    1.000000000000

      6   P      10             1.1000000    1.000000000000

 TOTAL NUMBER OF BASIS SET SHELLS             =    6
 NUMBER OF CARTESIAN GAUSSIAN BASIS FUNCTIONS =   10
 NUMBER OF ELECTRONS                          =    1
 CHARGE OF MOLECULE                           =    1
 SPIN MULTIPLICITY                            =    2
 NUMBER OF OCCUPIED ORBITALS (ALPHA)          =    1
 NUMBER OF OCCUPIED ORBITALS (BETA )          =    0
 TOTAL NUMBER OF ATOMS                        =    2
 THE NUCLEAR REPULSION ENERGY IS        0.7142857143

 THIS MOLECULE IS RECOGNIZED AS BEING LINEAR,
 ORBITAL LZ DEGENERACY TOLERANCE ETOLLZ= 1.00E-06

     $CONTRL OPTIONS
     ---------------
 SCFTYP=MCSCF        RUNTYP=ENERGY       EXETYP=RUN     
 MPLEVL=       0     CITYP =GENCI        CCTYP =NONE         VBTYP =NONE    
 DFTTYP=NONE         TDDFT =NONE    
 MULT  =       2     ICHARG=       1     NZVAR =       0     COORD =ZMT     
 PP    =NONE         RELWFN=NONE         LOCAL =NONE         NUMGRD=       F
 ISPHER=      -1     NOSYM =       0     MAXIT =      30     UNITS =BOHR    
 PLTORB=       F     MOLPLT=       F     AIMPAC=       F     FRIEND=        
 NPRINT=       3     IREST =       0     GEOM  =INPUT   
 NORMF =       0     NORMP =       0     ITOL  =      20     ICUT  =       9
 INTTYP=BEST         GRDTYP=BEST         QMTTOL= 1.0E-06

     $SYSTEM OPTIONS
     ---------------
  REPLICATED MEMORY=     1000000 WORDS (ON EVERY NODE).
 DISTRIBUTED MEMDDI=           0 MILLION WORDS IN AGGREGATE,
 MEMDDI DISTRIBUTED OVER   1 PROCESSORS IS           0 WORDS/PROCESSOR.
 TOTAL MEMORY REQUESTED ON EACH PROCESSOR=     1000000 WORDS.
 TIMLIM=      525600.00 MINUTES, OR     365.0 DAYS.
 PARALL= F  BALTYP=  DLB     KDIAG=    0  COREFL= F
 MXSEQ2=     300 MXSEQ3=     150  mem10=         0

          ----------------
          PROPERTIES INPUT
          ----------------

     MOMENTS            FIELD           POTENTIAL          DENSITY
 IEMOM =       1   IEFLD =       0   IEPOT =       0   IEDEN =       0
 WHERE =COMASS     WHERE =NUCLEI     WHERE =NUCLEI     WHERE =NUCLEI  
 OUTPUT=BOTH       OUTPUT=BOTH       OUTPUT=BOTH       OUTPUT=BOTH    
 IEMINT=       0   IEFINT=       0                     IEDINT=       0
                                                       MORB  =       0

     -------------------------------
     INTEGRAL TRANSFORMATION OPTIONS
     -------------------------------
     NWORD  =            0
     CUTOFF = 1.0E-09     MPTRAN =       0
     DIRTRF =       F     AOINTS =DUP     

          ----------------------
          MCSCF INPUT PARAMETERS
          ----------------------
 CONVERGER SELECTION: FOCAS = F  SOSCF = T  FULLNR = F  QUD = F  JACOBI = F
 SECULAR EQUATION METHOD CISTEP = ALDET   
 --- GENERAL INPUT OPTIONS:
 MAXIT =      60  MICIT =       5  ACURCY= 1.000E-06
 DAMP  =   0.000  CANONC=       T  ENGTOL= 1.000E-10
 EKT   =       F  NPUNCH=       2  NWORD =         0
 REGENERATE CI AFTER CONVERGENCE = NONE    
 DIABATIZATION AFTER CONVERGENCE =        F
 --- INPUT FOR SOSCF CONVERGER:
 FORS  =       T  NOFO  =       1

          ----------------------
          INTEGRAL INPUT OPTIONS
          ----------------------
 NOPK  =       1 NORDER=       0 SCHWRZ=       F

   --- ENCODED Z MATRIX ---
 COORD  TYPE   I   J   K   L   M   N
    1      1    2   1

 THE DETERMINANT OF THE G MATRIX IS 10**(     0)

     ------------------------------------------
     THE POINT GROUP IS C1 , NAXIS= 0, ORDER= 1
     ------------------------------------------

     DIMENSIONS OF THE SYMMETRY SUBSPACES ARE
 A   =   10

 ..... DONE SETTING UP THE RUN .....
 STEP CPU TIME =     0.00 TOTAL CPU TIME =          0.0 (      0.0 MIN)
 TOTAL WALL CLOCK TIME=          0.0 SECONDS, CPU UTILIZATION IS     0.00%

          ********************
          1 ELECTRON INTEGRALS
          ********************
 OVERLAP MATRIX

                      1          2          3          4          5

    1  H  1  S    1.000000
    2  H  1  S    0.658292   1.000000
    3  H  1  X    0.000000   0.000000   1.000000
    4  H  1  Y    0.000000   0.000000   0.000000   1.000000
    5  H  1  Z    0.000000   0.000000   0.000000   0.000000   1.000000
    6  H  2  S    0.454539   0.508762   0.000000   0.000000   0.469947
    7  H  2  S    0.508762   0.853805   0.000000   0.000000   0.155577
    8  H  2  X    0.000000   0.000000   0.340275   0.000000   0.000000
    9  H  2  Y    0.000000   0.000000   0.000000   0.340275   0.000000
   10  H  2  Z   -0.469947  -0.155577   0.000000   0.000000  -0.393358

                      6          7          8          9         10

    6  H  2  S    1.000000
    7  H  2  S    0.658292   1.000000
    8  H  2  X    0.000000   0.000000   1.000000
    9  H  2  Y    0.000000   0.000000   0.000000   1.000000
   10  H  2  Z   -0.000000  -0.000000   0.000000   0.000000   1.000000
 BARE NUCLEUS HAMILTONIAN INTEGRALS (H=T+V)

                      1          2          3          4          5

    1  H  1  S   -0.959934
    2  H  1  S   -0.920898  -0.926923
    3  H  1  X    0.000000   0.000000   1.002262
    4  H  1  Y    0.000000   0.000000   0.000000   1.002262
    5  H  1  Z   -0.246047  -0.190831   0.000000   0.000000   0.784854
    6  H  2  S   -0.807662  -0.778556   0.000000   0.000000  -0.502594
    7  H  2  S   -0.778556  -0.854519   0.000000   0.000000  -0.318192
    8  H  2  X    0.000000   0.000000  -0.094759   0.000000   0.000000
    9  H  2  Y    0.000000   0.000000   0.000000  -0.094759   0.000000
   10  H  2  Z    0.502594   0.318192   0.000000   0.000000  -0.484696

                      6          7          8          9         10

    6  H  2  S   -0.959934
    7  H  2  S   -0.920898  -0.926923
    8  H  2  X    0.000000   0.000000   1.002262
    9  H  2  Y    0.000000   0.000000   0.000000   1.002262
   10  H  2  Z    0.246047   0.190831   0.000000   0.000000   0.784854
 KINETIC ENERGY INTEGRALS

                      1          2          3          4          5

    1  H  1  S    1.395678
    2  H  1  S    0.259735   0.241917
    3  H  1  X    0.000000   0.000000   2.750000
    4  H  1  Y    0.000000   0.000000   0.000000   2.750000
    5  H  1  Z   -0.000000   0.000000   0.000000   0.000000   2.750000
    6  H  2  S    0.232001   0.166017   0.000000   0.000000   0.658346
    7  H  2  S    0.166017   0.184786   0.000000   0.000000   0.097348
    8  H  2  X    0.000000   0.000000   0.532259   0.000000   0.000000
    9  H  2  Y    0.000000   0.000000   0.000000   0.532259   0.000000
   10  H  2  Z   -0.658346  -0.097348   0.000000   0.000000  -1.422288

                      6          7          8          9         10

    6  H  2  S    1.395678
    7  H  2  S    0.259735   0.241917
    8  H  2  X    0.000000   0.000000   2.750000
    9  H  2  Y    0.000000   0.000000   0.000000   2.750000
   10  H  2  Z    0.000000  -0.000000   0.000000   0.000000   2.750000
 Z-ANGULAR MOMENTUM INTEGRALS

                      1          2          3          4          5

    1  H  1  S    0.000000
    2  H  1  S    0.000000   0.000000
    3  H  1  X    0.000000   0.000000   0.000000
    4  H  1  Y    0.000000   0.000000  -1.000000   0.000000
    5  H  1  Z    0.000000   0.000000   0.000000   0.000000   0.000000
    6  H  2  S    0.000000   0.000000   0.000000   0.000000   0.000000
    7  H  2  S    0.000000   0.000000   0.000000   0.000000   0.000000
    8  H  2  X    0.000000   0.000000   0.000000   0.340275   0.000000
    9  H  2  Y    0.000000   0.000000  -0.340275   0.000000   0.000000
   10  H  2  Z    0.000000   0.000000   0.000000   0.000000   0.000000

                      6          7          8          9         10

    6  H  2  S    0.000000
    7  H  2  S    0.000000   0.000000
    8  H  2  X    0.000000   0.000000   0.000000
    9  H  2  Y    0.000000   0.000000  -1.000000   0.000000
   10  H  2  Z    0.000000   0.000000   0.000000   0.000000   0.000000
 DIPOLE ORIGIN=   0.0000000000000000        0.0000000000000000        0.0000000000000000     
 X DIPOLE INTEGRALS

                      1          2          3          4          5

    1  H  1  S    0.000000
    2  H  1  S    0.000000   0.000000
    3  H  1  X    0.518483   0.453879   0.000000
    4  H  1  Y    0.000000   0.000000   0.000000   0.000000
    5  H  1  Z    0.000000   0.000000   0.000000   0.000000   0.000000
    6  H  2  S    0.000000   0.000000   0.221560   0.000000   0.000000
    7  H  2  S    0.000000   0.000000   0.344518   0.000000   0.000000
    8  H  2  X    0.221560   0.344518   0.000000   0.000000   0.238193
    9  H  2  Y    0.000000   0.000000   0.000000   0.000000   0.000000
   10  H  2  Z    0.000000   0.000000  -0.238193   0.000000   0.000000

                      6          7          8          9         10

    6  H  2  S    0.000000
    7  H  2  S    0.000000   0.000000
    8  H  2  X    0.518483   0.453879   0.000000
    9  H  2  Y    0.000000   0.000000   0.000000   0.000000
   10  H  2  Z    0.000000   0.000000   0.000000   0.000000   0.000000
 Y DIPOLE INTEGRALS

                      1          2          3          4          5

    1  H  1  S    0.000000
    2  H  1  S    0.000000   0.000000
    3  H  1  X    0.000000   0.000000   0.000000
    4  H  1  Y    0.518483   0.453879   0.000000   0.000000
    5  H  1  Z    0.000000   0.000000   0.000000   0.000000   0.000000
    6  H  2  S    0.000000   0.000000   0.000000   0.221560   0.000000
    7  H  2  S    0.000000   0.000000   0.000000   0.344518   0.000000
    8  H  2  X    0.000000   0.000000   0.000000   0.000000   0.000000
    9  H  2  Y    0.221560   0.344518   0.000000   0.000000   0.238193
   10  H  2  Z    0.000000   0.000000   0.000000  -0.238193   0.000000

                      6          7          8          9         10

    6  H  2  S    0.000000
    7  H  2  S    0.000000   0.000000
    8  H  2  X    0.000000   0.000000   0.000000
    9  H  2  Y    0.518483   0.453879   0.000000   0.000000
   10  H  2  Z    0.000000   0.000000   0.000000   0.000000   0.000000
 Z DIPOLE INTEGRALS

                      1          2          3          4          5

    1  H  1  S   -0.700000
    2  H  1  S   -0.460804  -0.700000
    3  H  1  X    0.000000   0.000000  -0.700000
    4  H  1  Y    0.000000   0.000000   0.000000  -0.700000
    5  H  1  Z    0.518483   0.453879   0.000000   0.000000  -0.700000
    6  H  2  S    0.000000   0.224219   0.000000   0.000000   0.181740
    7  H  2  S   -0.224219   0.000000   0.000000   0.000000   0.263465
    8  H  2  X    0.000000   0.000000   0.000000   0.000000   0.000000
    9  H  2  Y    0.000000   0.000000   0.000000   0.000000   0.000000
   10  H  2  Z    0.181740   0.263465   0.000000   0.000000  -0.000000

                      6          7          8          9         10

    6  H  2  S    0.700000
    7  H  2  S    0.460804   0.700000
    8  H  2  X    0.000000   0.000000   0.700000
    9  H  2  Y    0.000000   0.000000   0.000000   0.700000
   10  H  2  Z    0.518483   0.453879   0.000000   0.000000   0.700000
 TIME TO DO   DIPOLE INTEGRALS=      0.00
 ...... END OF ONE-ELECTRON INTEGRALS ......
 STEP CPU TIME =     0.00 TOTAL CPU TIME =          0.0 (      0.0 MIN)
 TOTAL WALL CLOCK TIME=          0.0 SECONDS, CPU UTILIZATION IS     0.00%

          -------------
          GUESS OPTIONS
          -------------
          GUESS =MOREAD            NORB  =      10          NORDER=       0
          MIX   =       F          PRTMO =       F          PUNMO =       F
          TOLZ  = 1.0E-08          TOLE  = 1.0E-05
          SYMDEN=       F          PURIFY=       F

 INITIAL GUESS ORBITALS GENERATED BY MOREAD   ROUTINE.

 SYMMETRIES FOR INITIAL GUESS ORBITALS FOLLOW.   BOTH SET(S).
     1 ORBITALS ARE OCCUPIED (    0 CORE ORBITALS).
     1=A        2=A        3=A        4=A        5=A        6=A        7=A   
     8=A        9=A       10=A   
 ...... END OF INITIAL ORBITAL SELECTION ......
 STEP CPU TIME =     0.00 TOTAL CPU TIME =          0.0 (      0.0 MIN)
 TOTAL WALL CLOCK TIME=          0.0 SECONDS, CPU UTILIZATION IS     0.00%

                    ----------------------
                    AO INTEGRAL TECHNOLOGY
                    ----------------------
     S,P,L SHELL ROTATED AXIS INTEGRALS, REPROGRAMMED BY
        KAZUYA ISHIMURA (IMS) AND JOSE SIERRA (SYNSTAR).
     S,P,D,L SHELL ROTATED AXIS INTEGRALS PROGRAMMED BY
        KAZUYA ISHIMURA (INSTITUTE FOR MOLECULAR SCIENCE).
     S,P,D,F,G SHELL TO TOTAL QUARTET ANGULAR MOMENTUM SUM 5,
        ERIC PROGRAM BY GRAHAM FLETCHER (ELORET AND NASA ADVANCED
        SUPERCOMPUTING DIVISION, AMES RESEARCH CENTER).
     S,P,D,F,G,L SHELL GENERAL RYS QUADRATURE PROGRAMMED BY
        MICHEL DUPUIS (PACIFIC NORTHWEST NATIONAL LABORATORY).

          --------------------
          2 ELECTRON INTEGRALS
          --------------------

 THE -PK- OPTION IS OFF, THE INTEGRALS ARE NOT IN SUPERMATRIX FORM.
 STORING   15000 INTEGRALS/RECORD ON DISK, USING 12 BYTES/INTEGRAL.
 TWO ELECTRON INTEGRAL EVALUATION REQUIRES   89377 WORDS OF MEMORY.
 II,JST,KST,LST =  1  1  1  1 NREC =         1 INTLOC =    1
 II,JST,KST,LST =  2  1  1  1 NREC =         1 INTLOC =    2
 II,JST,KST,LST =  3  1  1  1 NREC =         1 INTLOC =    7
 II,JST,KST,LST =  4  1  1  1 NREC =         1 INTLOC =   34
 II,JST,KST,LST =  5  1  1  1 NREC =         1 INTLOC =   84
 II,JST,KST,LST =  6  1  1  1 NREC =         1 INTLOC =  169
 TOTAL NUMBER OF NONZERO TWO-ELECTRON INTEGRALS =                 512
          1 INTEGRAL RECORDS WERE STORED ON DISK FILE  8.
  ...... END OF TWO-ELECTRON INTEGRALS .....
 STEP CPU TIME =     0.01 TOTAL CPU TIME =          0.0 (      0.0 MIN)
 TOTAL WALL CLOCK TIME=          0.0 SECONDS, CPU UTILIZATION IS    50.00%

          -----------------
          MCSCF CALCULATION
          -----------------

 ----- NUCLEAR ENERGY ----- =         0.7142857143

     --------------------------------------------------
          AMES LABORATORY DETERMINANTAL FULL CI
     PROGRAM WRITTEN BY JOE IVANIC AND KLAUS RUEDENBERG
     --------------------------------------------------

 THE POINT GROUP                  =   C1      
 THE STATE SYMMETRY               =   A       
 NUMBER OF CORE ORBITALS          =    0
 NUMBER OF ACTIVE ORBITALS        =    2
 NUMBER OF ALPHA ELECTRONS        =    1 (   1 ACTIVE)
 NUMBER OF BETA ELECTRONS         =    0 (   0 ACTIVE)
 NUMBER OF OCCUPIED ORBITALS      =    2
 NUMBER OF CI STATES REQUESTED    =    2
 NUMBER OF CI STARTING VECTORS    =    2
 MAX. NO. OF CI EXPANSION VECTORS =   10
 SIZE OF INITIAL CI GUESS MATRIX  =  300
 MAX. NO. OF CI ITERS/STATE       =  100
 CI DIAGONALIZATION CRITERION     = 1.00E-06
 PURE SPIN STATE AVERAGED 1E- AND 2E- DENSITY MATRIX OPTION=.T.
 STATE=   1 DM2 WEIGHT=   1.00000

 CORRELATION ENERGY ANALYSIS      =    F

 SYMMETRIES FOR THE   0 CORE,   2 ACTIVE ARE

   ACTIVE= A     A   
 OPENING FILE DAFL30 WITH      81 LOGICAL RECORDS OF     361 WORDS
 WITH A MAXIMUM OF          81 PHYSICAL RECORDS OF    2048 WORDS

          ------------------------------
          CASSCF INTEGRAL TRANSFORMATION
          ------------------------------
 AO INTEGRALS WILL BE READ IN FROM DISK...

 NUMBER OF CORE MOLECULAR ORBITALS     =     0
 NUMBER OF OCCUPIED MOLECULAR ORBITALS =     2
 TOTAL NUMBER OF MOLECULAR ORBITALS    =    10
 TOTAL NUMBER OF ATOMIC ORBITALS       =    10

 ----- CHOOSING THREE STEPS TRANSFORMATION -----
 NUMBER OF WORDS USED      =      61541
 NUMBER OF WORDS AVAILABLE =    1000000
 NUMBER OF PASSES          =          1

 ----- NUCLEAR REPULSION ENERGY =      0.71428571
 ----- FROZEN CORE ENERGY       =      0.00000000

 ... SYMMETRY ...           CPU =    0.00
 ... (PQ|RS) -> (PQ|KL) ... CPU =    0.00
 ... (PQ|KL) -> (IJ|KL) ... CPU =    0.00

 NUMBER OF (PQ|KL) INTEGRALS WRITTEN         76
 NUMBER OF (IJ|KL) INTEGRALS WRITTEN          4
 ..... END OF CAS INTEGRAL TRANSFORMATION .....
 STEP CPU TIME =     0.00 TOTAL CPU TIME =          0.0 (      0.0 MIN)
 TOTAL WALL CLOCK TIME=          0.0 SECONDS, CPU UTILIZATION IS    50.00%

     --------------------------------------------------
          AMES LABORATORY DETERMINANTAL FULL CI
     PROGRAM WRITTEN BY JOE IVANIC AND KLAUS RUEDENBERG
     --------------------------------------------------

 THE NUMBER OF DETERMINANTS HAVING SPACE SYMMETRY A  
 IN POINT GROUP C1   WITH SZ=  0.5 IS              2
 WHICH INCLUDES              2 CSFS WITH S=  0.5
 THE DETERMINANT FULL CI REQUIRES          169593 WORDS
 SMALL CI MATRIX, JUST USING INCORE DIAGONALIZATION...

 CI EIGENVECTORS WILL BE LABELED IN GROUP=C1      
 PRINTING ALL NON-ZERO CI COEFFICIENTS

 STATE   1  ENERGY=        -0.5656221718  S=  0.50  SZ=  0.50  SPACE SYM=A   

 ALP| BET| CI COEFFICIENT
----|----|---------------
 10 | 00 |                                                                                                       1.0000000000

 STATE   2  ENERGY=         0.1211518708  S=  0.50  SZ=  0.50  SPACE SYM=A   

 ALP| BET| CI COEFFICIENT
----|----|---------------
 01 | 00 |                                                                                                       1.0000000000
 ..... DONE WITH DETERMINANT CI COMPUTATION .....
 STEP CPU TIME =     0.00 TOTAL CPU TIME =          0.0 (      0.0 MIN)
 TOTAL WALL CLOCK TIME=          0.0 SECONDS, CPU UTILIZATION IS    50.00%

     --------------------------------------------------
      ONE AND TWO PARTICLE DENSITY MATRIX COMPUTATION
     PROGRAM WRITTEN BY JOE IVANIC AND KLAUS RUEDENBERG
     --------------------------------------------------

      30094 WORDS WILL BE USED TO FORM THE DENSITIES
 THE DENSITIES ARE STATE AVERAGED OVER   1 ROOT(S)
 STATE=   1   ENERGY=       -0.5656221718   WEIGHT= 1.00000   S=  0.50
 SIEVING THE A    SYMMETRY NONZERO DENSITY ELEMENTS IN GROUP C1      
 ***** ERROR: ACTIVE ORBITAL  2 HAS VERY SMALL OCCUPATION NUMBER= 0.000000E+00
 CHECK YOUR ACTIVE SPACE CAREFULLY.
 THE 1ST ORDER DENSITY MATRIX IS:

             1           2

    1    1.0000000
    2    0.0000000   0.0000000
 EXECUTION OF GAMESS TERMINATED -ABNORMALLY- AT Thu Jul 26 13:55:46 2018
               580000  WORDS OF DYNAMIC MEMORY USED
 STEP CPU TIME =     0.00 TOTAL CPU TIME =          0.0 (      0.0 MIN)
 TOTAL WALL CLOCK TIME=          0.0 SECONDS, CPU UTILIZATION IS    50.00%
 ddikick.x: application process 0 quit unexpectedly.
 ddikick.x: Sending kill signal to DDI processes.
 ddikick.x: Execution terminated due to error(s).
----- accounting info -----
Files used on the master node labodang001 were:
-rw-rw-r-- 1 jnicolas jnicolas     460 Jul 26 13:55 /tmp/1e.dat
-rw-rw-r-- 1 jnicolas jnicolas    2052 Jul 26 13:55 /tmp/1e.F05
-rw-rw-r-- 1 jnicolas jnicolas  180016 Jul 26 13:55 /tmp/1e.F08
-rw-rw-r-- 1 jnicolas jnicolas  180464 Jul 26 13:55 /tmp/1e.F09
-rw-rw-r-- 1 jnicolas jnicolas 1734160 Jul 26 13:55 /tmp/1e.F10
-rw-rw-r-- 1 jnicolas jnicolas      72 Jul 26 13:55 /tmp/1e.F12
-rw-rw-r-- 1 jnicolas jnicolas     880 Jul 26 13:55 /tmp/1e.F13
-rw-rw-r-- 1 jnicolas jnicolas       0 Jul 26 13:55 /tmp/1e.F15
-rw-rw-r-- 1 jnicolas jnicolas       0 Jul 26 13:55 /tmp/1e.F23
-rw-rw-r-- 1 jnicolas jnicolas       0 Jul 26 13:55 /tmp/1e.F30
Thu Jul 26 13:55:48 EDT 2018
0.0u 0.0s 0:02.09 2.3% 0+0k 0+24io 0pf+0w
