----- GAMESS execution script 'rungms' -----
This job is running on host labodang001
under operating system Linux at Wed Jul 18 15:26:24 EDT 2018
Available scratch disk space (Kbyte units) at beginning of the job is
Filesystem     1K-blocks     Used Available Use% Mounted on
/dev/sda1       49601260 32992704  14065864  71% /
GAMESS temporary binary files will be written to /tmp
GAMESS supplementary output files will be written to /tmp
Copying input file 2e.inp to your run's scratch directory...

 Distributed Data Interface kickoff program.
 Initiating 1 compute processes on 1 nodes to run the following command:
 /opt/gamess/gamess.00.x 2e 

          ******************************************************
          *         GAMESS VERSION = 14 FEB 2018 (R1)         *
          *             FROM IOWA STATE UNIVERSITY             *
          * M.W.SCHMIDT, K.K.BALDRIDGE, J.A.BOATZ, S.T.ELBERT, *
          *   M.S.GORDON, J.H.JENSEN, S.KOSEKI, N.MATSUNAGA,   *
          *          K.A.NGUYEN, S.J.SU, T.L.WINDUS,           *
          *       TOGETHER WITH M.DUPUIS, J.A.MONTGOMERY       *
          *         J.COMPUT.CHEM.  14, 1347-1363(1993)        *
          **************** 64 BIT LINUX VERSION ****************

  SINCE 1993, STUDENTS AND POSTDOCS WORKING AT IOWA STATE UNIVERSITY
  AND ALSO IN THEIR VARIOUS JOBS AFTER LEAVING ISU HAVE MADE IMPORTANT
  CONTRIBUTIONS TO THE CODE:
     IVANA ADAMOVIC, CHRISTINE AIKENS, YURI ALEXEEV, POOJA ARORA,
     ANDREY ASADCHEV, ROB BELL, PRADIPTA BANDYOPADHYAY, JONATHAN BENTZ,
     BRETT BODE, KURT BRORSEN, CALEB CARLIN, GALINA CHABAN, WEI CHEN,
     CHEOL HO CHOI, PAUL DAY, ALBERT DEFUSCO, NUWAN DESILVA, TIM DUDLEY,
     DMITRI FEDOROV, ALEX FINDLATER, GRAHAM FLETCHER, MARK FREITAG,
     KURT GLAESEMANN, ANASTASIA GUININA,
     DAN KEMP, GRANT MERRILL, NORIYUKI MINEZAWA, JONATHAN MULLIN,
     TAKESHI NAGATA, SEAN NEDD, HEATHER NETZLOFF, BOSILJKA NJEGIC, RYAN OLSON,
     MIKE PAK, BUU PHAM,
     SPENCER PRUITT, LUKE ROSKOP, JIM SHOEMAKER, LYUDMILA SLIPCHENKO,
     TONY SMITH, SAROM SOK LEANG, JIE SONG, TETSUYA TAKETSUGU, SIMON WEBB,
     PENG XU, SOOHAENG YOO, FEDERICO ZAHARIEV

  ADDITIONAL CODE HAS BEEN PROVIDED BY COLLABORATORS IN OTHER GROUPS:
     IOWA STATE UNIVERSITY:
          JOE IVANIC, AARON WEST, LAIMUTIS BYTAUTAS, KLAUS RUEDENBERG
     UNIVERSITY OF TOKYO: KIMIHIKO HIRAO, TAKAHITO NAKAJIMA,
          TAKAO TSUNEDA, MUNEAKI KAMIYA, SUSUMU YANAGISAWA,
          KIYOSHI YAGI, MAHITO CHIBA, SEIKEN TOKURA, NAOAKI KAWAKAMI
     UNIVERSITY OF AARHUS: FRANK JENSEN
     UNIVERSITY OF IOWA: VISVALDAS KAIRYS, HUI LI
     NATIONAL INST. OF STANDARDS AND TECHNOLOGY: WALT STEVENS, DAVID GARMER
     UNIVERSITY OF PISA: BENEDETTA MENNUCCI, JACOPO TOMASI
     UNIVERSITY OF MEMPHIS: HENRY KURTZ, PRAKASHAN KORAMBATH
     UNIVERSITY OF ALBERTA: TOBY ZENG, MARIUSZ KLOBUKOWSKI
     UNIVERSITY OF NEW ENGLAND: MARK SPACKMAN
     MIE UNIVERSITY: HIROAKI UMEDA
     NAT. INST. OF ADVANCED INDUSTRIAL SCIENCE AND TECHNOLOGY: KAZUO KITAURA
     MICHIGAN STATE UNIVERSITY:
          KAROL KOWALSKI, MARTA WLOCH, JEFFREY GOUR, JESSE LUTZ,
          WEI LI, PIOTR PIECUCH
     UNIVERSITY OF SILESIA: MONIKA MUSIAL, STANISLAW KUCHARSKI
     FACULTES UNIVERSITAIRES NOTRE-DAME DE LA PAIX:
          OLIVIER QUINET, BENOIT CHAMPAGNE
     UNIVERSITY OF CALIFORNIA - SANTA BARBARA: BERNARD KIRTMAN
     INSTITUTE FOR MOLECULAR SCIENCE:
          KAZUYA ISHIMURA, MICHIO KATOUDA, AND SHIGERU NAGASE
     UNIVERSITY OF NOTRE DAME: ANNA POMOGAEVA, DAN CHIPMAN
     KYUSHU UNIVERSITY:
          HARUYUKI NAKANO,
          FENG LONG GU, JACEK KORCHOWIEC, MARCIN MAKOWSKI, AND YURIKO AOKI,
          HIROTOSHI MORI AND EISAKU MIYOSHI
     PENNSYLVANIA STATE UNIVERSITY:
          TZVETELIN IORDANOV, CHET SWALINA, JONATHAN SKONE,
          SHARON HAMMES-SCHIFFER
     WASEDA UNIVERSITY:
          MASATO KOBAYASHI, TOMOKO AKAMA, TSUGUKI TOUMA,
          TAKESHI YOSHIKAWA, YASUHIRO IKABATA, JUNJI SEINO,
          YUYA NAKAJIMA, HIROMI NAKAI
     NANJING UNIVERSITY: SHUHUA LI
     UNIVERSITY OF NEBRASKA:
          PEIFENG SU, DEJUN SI, NANDUN THELLAMUREGE, YALI WANG, HUI LI
     UNIVERSITY OF ZURICH: ROBERTO PEVERATI, KIM BALDRIDGE
     N. COPERNICUS UNIVERSITY AND JACKSON STATE UNIVERSITY:
          MARIA BARYSZ
     UNIVERSITY OF COPENHAGEN: Jimmy Kromann, CASPER STEINMANN
     TOKYO INSTITUTE OF TECHNOLOGY: HIROYA NAKATA
     NAGOYA UNIVERSITY: YOSHIO NISHIMOTO, STEPHAN IRLE
     MOSCOW STATE UNIVERSITY: VLADIMIR MIRONOV

 EXECUTION OF GAMESS BEGUN Wed Jul 18 15:26:24 2018

            ECHO OF THE FIRST FEW INPUT CARDS -
 INPUT CARD>!   File created by the GAMESS Input Deck Generator Plugin for Avogadro         
 INPUT CARD> $BASIS GBASIS=N31 NGAUSS=6 NDFUNC=1 NPFUNC=1 $END                              
 INPUT CARD> $CONTRL SCFTYP=MCSCF RUNTYP=ENERGY CITYP=GENCI $END                            
 INPUT CARD> $CONTRL COORD=ZMT UNITS=BOHR NPRINT=4 $END                                     
 INPUT CARD> $DET NCORE=0 NACT=2 NELS=2 $END                                                
 INPUT CARD> $CIGEN NCORE=0 NACT=2 NELS=2 $END                                              
 INPUT CARD> $GUESS GUESS=MOREAD NORB=10 $END                                               
 INPUT CARD> $GCILST                                                                        
 INPUT CARD>3                                                                               
 INPUT CARD>2 0                                                                             
 INPUT CARD>1 1                                                                             
 INPUT CARD>0 2                                                                             
 INPUT CARD> $END                                                                           
 INPUT CARD> $VEC                                                                           
 INPUT CARD> 1  1 3.18258990E-01 2.75397645E-01 0.00000000E+00 0.00000000E+00 1.82624245E-02
 INPUT CARD> 1  2 3.18258990E-01 2.75397645E-01 0.00000000E+00 0.00000000E+00-1.82624245E-02
 INPUT CARD> 2  1 1.20417783E-01 1.71847692E+00 0.00000000E+00 0.00000000E+00 2.37087270E-03
 INPUT CARD> 2  2-1.20417783E-01-1.71847692E+00 0.00000000E+00 0.00000000E+00 2.37087270E-03
 INPUT CARD> 3  1 7.46081537E-01-6.77405655E-01 0.00000000E+00 0.00000000E+00 3.57842908E-02
 INPUT CARD> 3  2 7.46081537E-01-6.77405655E-01 0.00000000E+00 0.00000000E+00-3.57842908E-02
 INPUT CARD> 4  1 8.82009954E-01-1.39246840E+00 0.00000000E+00 0.00000000E+00-2.81534602E-01
 INPUT CARD> 4  2-8.82009954E-01 1.39246840E+00 0.00000000E+00 0.00000000E+00-2.81534602E-01
 INPUT CARD> 5  1-0.00000000E+00-0.00000000E+00 5.54737898E-01-2.55584667E-01-0.00000000E+00
 INPUT CARD> 5  2-0.00000000E+00-0.00000000E+00 5.54737898E-01-2.55584667E-01-0.00000000E+00
 INPUT CARD> 6  1 0.00000000E+00 0.00000000E+00 2.55584667E-01 5.54737898E-01 0.00000000E+00
 INPUT CARD> 6  2 0.00000000E+00 0.00000000E+00 2.55584667E-01 5.54737898E-01 0.00000000E+00
 INPUT CARD> 7  1 3.86119372E-01-1.86591961E-01-0.00000000E+00-0.00000000E+00-6.47490126E-01
 INPUT CARD> 7  2 3.86119372E-01-1.86591961E-01-0.00000000E+00-0.00000000E+00 6.47490126E-01
 INPUT CARD> 8  1-0.00000000E+00-0.00000000E+00-4.13070950E-01 7.66331776E-01-0.00000000E+00
 INPUT CARD> 8  2-0.00000000E+00-0.00000000E+00 4.13070950E-01-7.66331776E-01-0.00000000E+00
 INPUT CARD> 9  1 0.00000000E+00 0.00000000E+00-7.66331776E-01-4.13070950E-01 0.00000000E+00
 INPUT CARD> 9  2 0.00000000E+00 0.00000000E+00 7.66331776E-01 4.13070950E-01 0.00000000E+00
 INPUT CARD>10  1 1.44553595E+00 1.62355331E-01 0.00000000E+00 0.00000000E+00 1.57652890E+00
 INPUT CARD>10  2-1.44553595E+00-1.62355331E-01 0.00000000E+00 0.00000000E+00 1.57652890E+00
 INPUT CARD> $END                                                                           
 INPUT CARD> $DATA                                                                          
 INPUT CARD>Title                                                                           
 INPUT CARD>C1                                                                              
 INPUT CARD>H                                                                               
 INPUT CARD>H 1 1.4                                                                         
 INPUT CARD> $END                                                                           
    1000000 WORDS OF MEMORY AVAILABLE

     BASIS OPTIONS
     -------------
     GBASIS=N31          IGAUSS=       6      POLAR=POPN31  
     NDFUNC=       1     NFFUNC=       0     DIFFSP=       F
     NPFUNC=       1      DIFFS=       F     BASNAM=        


     RUN TITLE
     ---------
 Title                                                                           

 THE POINT GROUP OF THE MOLECULE IS C1      
 THE ORDER OF THE PRINCIPAL AXIS IS     0

 YOUR FULLY SUBSTITUTED Z-MATRIX IS
 H   
 H      1   0.7408481

 THE MOMENTS OF INERTIA ARE (AMU-ANGSTROM**2)
 IXX=     0.277   IYY=     0.277   IZZ=     0.000

 ATOM      ATOMIC                      COORDINATES (BOHR)
           CHARGE         X                   Y                   Z
 H           1.0     0.0000000000        0.0000000000       -0.7000000000
 H           1.0     0.0000000000        0.0000000000        0.7000000000

          INTERNUCLEAR DISTANCES (ANGS.)
          ------------------------------

                1 H          2 H     

   1 H       0.0000000    0.7408481 *
   2 H       0.7408481 *  0.0000000  

  * ... LESS THAN  3.000


     ATOMIC BASIS SET
     ----------------
 THE CONTRACTED PRIMITIVE FUNCTIONS HAVE BEEN UNNORMALIZED
 THE CONTRACTED BASIS FUNCTIONS ARE NOW NORMALIZED TO UNITY

  SHELL TYPE  PRIMITIVE        EXPONENT          CONTRACTION COEFFICIENT(S)

 H         

      1   S       1            18.7311370    0.033494604338
      1   S       2             2.8253944    0.234726953484
      1   S       3             0.6401217    0.813757326146

      2   S       4             0.1612778    1.000000000000

      3   P       5             1.1000000    1.000000000000

 H         

      4   S       6            18.7311370    0.033494604338
      4   S       7             2.8253944    0.234726953484
      4   S       8             0.6401217    0.813757326146

      5   S       9             0.1612778    1.000000000000

      6   P      10             1.1000000    1.000000000000

 TOTAL NUMBER OF BASIS SET SHELLS             =    6
 NUMBER OF CARTESIAN GAUSSIAN BASIS FUNCTIONS =   10
 NUMBER OF ELECTRONS                          =    2
 CHARGE OF MOLECULE                           =    0
 SPIN MULTIPLICITY                            =    1
 NUMBER OF OCCUPIED ORBITALS (ALPHA)          =    1
 NUMBER OF OCCUPIED ORBITALS (BETA )          =    1
 TOTAL NUMBER OF ATOMS                        =    2
 THE NUCLEAR REPULSION ENERGY IS        0.7142857143

 THIS MOLECULE IS RECOGNIZED AS BEING LINEAR,
 ORBITAL LZ DEGENERACY TOLERANCE ETOLLZ= 1.00E-06

     $CONTRL OPTIONS
     ---------------
 SCFTYP=MCSCF        RUNTYP=ENERGY       EXETYP=RUN     
 MPLEVL=       0     CITYP =GENCI        CCTYP =NONE         VBTYP =NONE    
 DFTTYP=NONE         TDDFT =NONE    
 MULT  =       1     ICHARG=       0     NZVAR =       0     COORD =ZMT     
 PP    =NONE         RELWFN=NONE         LOCAL =NONE         NUMGRD=       F
 ISPHER=      -1     NOSYM =       0     MAXIT =      30     UNITS =BOHR    
 PLTORB=       F     MOLPLT=       F     AIMPAC=       F     FRIEND=        
 NPRINT=       4     IREST =       0     GEOM  =INPUT   
 NORMF =       0     NORMP =       0     ITOL  =      20     ICUT  =       9
 INTTYP=BEST         GRDTYP=BEST         QMTTOL= 1.0E-06

     $SYSTEM OPTIONS
     ---------------
  REPLICATED MEMORY=     1000000 WORDS (ON EVERY NODE).
 DISTRIBUTED MEMDDI=           0 MILLION WORDS IN AGGREGATE,
 MEMDDI DISTRIBUTED OVER   1 PROCESSORS IS           0 WORDS/PROCESSOR.
 TOTAL MEMORY REQUESTED ON EACH PROCESSOR=     1000000 WORDS.
 TIMLIM=      525600.00 MINUTES, OR     365.0 DAYS.
 PARALL= F  BALTYP=  DLB     KDIAG=    0  COREFL= F
 MXSEQ2=     300 MXSEQ3=     150  mem10=         0

          ----------------
          PROPERTIES INPUT
          ----------------

     MOMENTS            FIELD           POTENTIAL          DENSITY
 IEMOM =       1   IEFLD =       0   IEPOT =       0   IEDEN =       0
 WHERE =COMASS     WHERE =NUCLEI     WHERE =NUCLEI     WHERE =NUCLEI  
 OUTPUT=BOTH       OUTPUT=BOTH       OUTPUT=BOTH       OUTPUT=BOTH    
 IEMINT=       0   IEFINT=       0                     IEDINT=       0
                                                       MORB  =       0

     -------------------------------
     INTEGRAL TRANSFORMATION OPTIONS
     -------------------------------
     NWORD  =            0
     CUTOFF = 1.0E-09     MPTRAN =       0
     DIRTRF =       F     AOINTS =DUP     

          ----------------------
          MCSCF INPUT PARAMETERS
          ----------------------
 CONVERGER SELECTION: FOCAS = F  SOSCF = T  FULLNR = F  QUD = F  JACOBI = F
 SECULAR EQUATION METHOD CISTEP = ALDET   
 --- GENERAL INPUT OPTIONS:
 MAXIT =      60  MICIT =       5  ACURCY= 1.000E-06
 DAMP  =   0.000  CANONC=       T  ENGTOL= 1.000E-10
 EKT   =       F  NPUNCH=       2  NWORD =         0
 REGENERATE CI AFTER CONVERGENCE = NONE    
 DIABATIZATION AFTER CONVERGENCE =        F
 --- INPUT FOR SOSCF CONVERGER:
 FORS  =       T  NOFO  =       1

          ----------------------
          INTEGRAL INPUT OPTIONS
          ----------------------
 NOPK  =       1 NORDER=       0 SCHWRZ=       F

   --- ENCODED Z MATRIX ---
 COORD  TYPE   I   J   K   L   M   N
    1      1    2   1

 THE DETERMINANT OF THE G MATRIX IS 10**(     0)

     ------------------------------------------
     THE POINT GROUP IS C1 , NAXIS= 0, ORDER= 1
     ------------------------------------------

     DIMENSIONS OF THE SYMMETRY SUBSPACES ARE
 A   =   10

 ..... DONE SETTING UP THE RUN .....
 STEP CPU TIME =     0.00 TOTAL CPU TIME =          0.0 (      0.0 MIN)
 TOTAL WALL CLOCK TIME=          0.0 SECONDS, CPU UTILIZATION IS     0.00%

          ********************
          1 ELECTRON INTEGRALS
          ********************
 TIME TO DO   DIPOLE INTEGRALS=      0.00
 ...... END OF ONE-ELECTRON INTEGRALS ......
 STEP CPU TIME =     0.00 TOTAL CPU TIME =          0.0 (      0.0 MIN)
 TOTAL WALL CLOCK TIME=          0.0 SECONDS, CPU UTILIZATION IS     0.00%

          -------------
          GUESS OPTIONS
          -------------
          GUESS =MOREAD            NORB  =      10          NORDER=       0
          MIX   =       F          PRTMO =       F          PUNMO =       F
          TOLZ  = 1.0E-08          TOLE  = 1.0E-05
          SYMDEN=       F          PURIFY=       F

 INITIAL GUESS ORBITALS GENERATED BY MOREAD   ROUTINE.

 SYMMETRIES FOR INITIAL GUESS ORBITALS FOLLOW.   BOTH SET(S).
     1 ORBITALS ARE OCCUPIED (    0 CORE ORBITALS).
     1=A        2=A        3=A        4=A        5=A        6=A        7=A   
     8=A        9=A       10=A   
 ...... END OF INITIAL ORBITAL SELECTION ......
 STEP CPU TIME =     0.00 TOTAL CPU TIME =          0.0 (      0.0 MIN)
 TOTAL WALL CLOCK TIME=          0.0 SECONDS, CPU UTILIZATION IS     0.00%

                    ----------------------
                    AO INTEGRAL TECHNOLOGY
                    ----------------------
     S,P,L SHELL ROTATED AXIS INTEGRALS, REPROGRAMMED BY
        KAZUYA ISHIMURA (IMS) AND JOSE SIERRA (SYNSTAR).
     S,P,D,L SHELL ROTATED AXIS INTEGRALS PROGRAMMED BY
        KAZUYA ISHIMURA (INSTITUTE FOR MOLECULAR SCIENCE).
     S,P,D,F,G SHELL TO TOTAL QUARTET ANGULAR MOMENTUM SUM 5,
        ERIC PROGRAM BY GRAHAM FLETCHER (ELORET AND NASA ADVANCED
        SUPERCOMPUTING DIVISION, AMES RESEARCH CENTER).
     S,P,D,F,G,L SHELL GENERAL RYS QUADRATURE PROGRAMMED BY
        MICHEL DUPUIS (PACIFIC NORTHWEST NATIONAL LABORATORY).

          --------------------
          2 ELECTRON INTEGRALS
          --------------------

 THE -PK- OPTION IS OFF, THE INTEGRALS ARE NOT IN SUPERMATRIX FORM.
 STORING   15000 INTEGRALS/RECORD ON DISK, USING 12 BYTES/INTEGRAL.
 TWO ELECTRON INTEGRAL EVALUATION REQUIRES   89377 WORDS OF MEMORY.
 II,JST,KST,LST =  1  1  1  1 NREC =         1 INTLOC =    1
 II,JST,KST,LST =  2  1  1  1 NREC =         1 INTLOC =    2
   1   1   1   1  1.0      1.076566132    2   1   1   1  1.0      0.578470297
   2   2   1   1  1.0      0.587395831    2   1   2   1  1.0      0.329423122
   2   2   2   1  1.0      0.361303769    2   2   2   2  1.0      0.453150328
 II,JST,KST,LST =  3  1  1  1 NREC =         1 INTLOC =    7
   3   3   1   1  1.0      0.945332484    4   4   1   1  1.0      0.945332484
   5   5   1   1  1.0      0.945332484    3   1   3   1  1.0      0.188086433
   4   1   4   1  1.0      0.188086433    5   1   5   1  1.0      0.188086433
   3   3   2   1  1.0      0.536499763    4   4   2   1  1.0      0.536499763
   5   5   2   1  1.0      0.536499763    3   2   3   1  1.0      0.116424237
   4   2   4   1  1.0      0.116424237    5   2   5   1  1.0      0.116424237
   3   3   2   2  1.0      0.572969268    4   4   2   2  1.0      0.572969268
   5   5   2   2  1.0      0.572969268    3   2   3   2  1.0      0.077609457
   4   2   4   2  1.0      0.077609457    5   2   5   2  1.0      0.077609457
   3   3   3   3  1.0      0.966487478    4   3   4   3  1.0      0.059172703
   4   4   3   3  1.0      0.848142072    4   4   4   4  1.0      0.966487478
   5   3   5   3  1.0      0.059172703    5   4   5   4  1.0      0.059172703
   5   5   3   3  1.0      0.848142072    5   5   4   4  1.0      0.848142072
 II,JST,KST,LST =  4  1  1  1 NREC =         1 INTLOC =   34
   5   5   5   5  1.0      0.966487478    6   1   1   1  1.0      0.407412480
   6   2   1   1  1.0      0.346270164    6   1   2   1  1.0      0.231715991
   6   2   2   1  1.0      0.209748251    6   1   2   2  1.0      0.252525622
   6   2   2   2  1.0      0.252478949    6   5   1   1  1.0      0.383306105
   6   1   5   1  1.0      0.071193411    6   5   2   1  1.0      0.226543880
   6   2   5   1  1.0      0.067561492    6   1   5   2  1.0      0.048515976
   6   5   2   2  1.0      0.256313633    6   2   5   2  1.0      0.050622345
   6   3   3   1  1.0      0.064490308    6   4   4   1  1.0      0.064490308
   6   5   5   1  1.0      0.125077164    6   1   3   3  1.0      0.369563968
   6   1   4   4  1.0      0.369563968    6   1   5   5  1.0      0.395832656
   6   3   3   2  1.0      0.042087322    6   4   4   2  1.0      0.042087322
   6   5   5   2  1.0      0.085065421    6   2   3   3  1.0      0.327204824
   6   2   4   4  1.0      0.327204824    6   2   5   5  1.0      0.354025198
   6   3   5   3  1.0      0.019315048    6   4   5   4  1.0      0.019315048
   6   5   3   3  1.0      0.349995828    6   5   4   4  1.0      0.349995828
   6   5   5   5  1.0      0.411890365    6   6   1   1  1.0      0.661723241
   6   1   6   1  1.0      0.199642699    6   6   2   1  1.0      0.407479663
   6   2   6   1  1.0      0.187534995    6   6   2   2  1.0      0.497843190
   6   2   6   2  1.0      0.195815600    6   6   5   1  1.0      0.179224543
   6   5   6   1  1.0      0.226545254    6   6   5   2  1.0      0.135714478
   6   5   6   2  1.0      0.221483808    6   6   3   3  1.0      0.615341713
   6   6   4   4  1.0      0.615341713    6   6   5   5  1.0      0.723319840
   6   3   6   3  1.0      0.031249185    6   4   6   4  1.0      0.031249185
   6   5   6   5  1.0      0.285344190    6   6   6   1  1.0      0.407412480
   6   6   6   2  1.0      0.440488627    6   6   6   5  1.0      0.517094582
 II,JST,KST,LST =  5  1  1  1 NREC =         1 INTLOC =   84
   6   6   6   6  1.0      1.076566132    7   1   1   1  1.0      0.440488627
   7   2   1   1  1.0      0.480106594    7   1   2   1  1.0      0.251707964
   7   2   2   1  1.0      0.296914483    7   1   2   2  1.0      0.277567788
   7   2   2   2  1.0      0.376947470    7   5   1   1  1.0      0.119631523
   7   1   5   1  1.0      0.022420733    7   5   2   1  1.0      0.071528356
   7   2   5   1  1.0      0.031005321    7   1   5   2  1.0      0.015781330
   7   5   2   2  1.0      0.082718096    7   2   5   2  1.0      0.024646691
   7   3   3   1  1.0      0.087083943    7   4   4   1  1.0      0.087083943
   7   5   5   1  1.0      0.091570201    7   1   3   3  1.0      0.408904051
   7   1   4   4  1.0      0.408904051    7   1   5   5  1.0      0.410906924
   7   3   3   2  1.0      0.058200431    7   4   4   2  1.0      0.058200431
   7   5   5   2  1.0      0.061497125    7   2   3   3  1.0      0.468381315
   7   2   4   4  1.0      0.468381315    7   2   5   5  1.0      0.471647506
   7   3   5   3  1.0      0.007148666    7   4   5   4  1.0      0.007148666
   7   5   3   3  1.0      0.111399950    7   5   4   4  1.0      0.111399950
   7   5   5   5  1.0      0.126013241    7   6   1   1  1.0      0.407479663
   7   1   6   1  1.0      0.187534995    7   6   2   1  1.0      0.251178728
   7   2   6   1  1.0      0.224831427    7   1   6   2  1.0      0.173103996
   7   6   2   2  1.0      0.312273983    7   2   6   2  1.0      0.234438303
   7   6   5   1  1.0      0.087688450    7   5   6   1  1.0      0.091652971
   7   1   6   5  1.0      0.191830297    7   6   5   2  1.0      0.067274322
   7   5   6   2  1.0      0.091776767    7   2   6   5  1.0      0.240481407
   7   6   3   3  1.0      0.386275027    7   6   4   4  1.0      0.386275027
   7   6   5   5  1.0      0.425283749    7   3   6   3  1.0      0.034306047
   7   4   6   4  1.0      0.034306047    7   5   6   5  1.0      0.124609215
   7   6   6   1  1.0      0.231715991    7   1   6   6  1.0      0.346270164
   7   6   6   2  1.0      0.251707964    7   2   6   6  1.0      0.480106594
   7   6   6   5  1.0      0.279323738    7   5   6   6  1.0      0.216939293
   7   6   6   6  1.0      0.578470297    7   7   1   1  1.0      0.497843190
   7   1   7   1  1.0      0.195815600    7   7   2   1  1.0      0.312273983
   7   2   7   1  1.0      0.234438303    7   7   2   2  1.0      0.409609813
   7   2   7   2  1.0      0.330339038    7   7   5   1  1.0      0.057522728
   7   5   7   1  1.0      0.067619362    7   7   5   2  1.0      0.046411583
   7   5   7   2  1.0      0.088630796    7   7   3   3  1.0      0.486005673
   7   7   4   4  1.0      0.486005673    7   7   5   5  1.0      0.497470108
   7   3   7   3  1.0      0.044715496    7   4   7   4  1.0      0.044715496
   7   5   7   5  1.0      0.066404199    7   7   6   1  1.0      0.252525622
   7   6   7   1  1.0      0.209748251    7   7   6   2  1.0      0.277567788
   7   6   7   2  1.0      0.296914483    7   7   6   5  1.0      0.281655865
   7   6   7   5  1.0      0.117205545    7   7   6   6  1.0      0.587395831
   7   6   7   6  1.0      0.329423122    7   7   7   1  1.0      0.252478949
   7   7   7   2  1.0      0.376947470    7   7   7   5  1.0      0.111714305
   7   7   7   6  1.0      0.361303769    7   7   7   7  1.0      0.453150328
 II,JST,KST,LST =  6  1  1  1 NREC =         1 INTLOC =  169
  10   1   1   1  1.0     -0.517094582   10   2   1   1  1.0     -0.216939293
  10   1   2   1  1.0     -0.279323738   10   2   2   1  1.0     -0.117205545
  10   1   2   2  1.0     -0.281655865   10   2   2   2  1.0     -0.111714305
   8   3   1   1  1.0      0.282178997    9   4   1   1  1.0      0.282178997
  10   5   1   1  1.0     -0.394781558    8   1   3   1  1.0      0.052701484
   9   1   4   1  1.0      0.052701484   10   1   5   1  1.0     -0.078180860
   8   3   2   1  1.0      0.166047769    9   4   2   1  1.0      0.166047769
  10   5   2   1  1.0     -0.221814034    8   2   3   1  1.0      0.046783828
   9   2   4   1  1.0      0.046783828   10   2   5   1  1.0     -0.034016087
   8   1   3   2  1.0      0.035520772    9   1   4   2  1.0      0.035520772
  10   1   5   2  1.0     -0.047124491    8   3   2   2  1.0      0.186668617
   9   4   2   2  1.0      0.186668617   10   5   2   2  1.0     -0.231727148
   8   2   3   2  1.0      0.034567104    9   2   4   2  1.0      0.034567104
  10   2   5   2  1.0     -0.019169099    8   3   5   1  1.0      0.052308418
   8   5   3   1  1.0      0.052308418    9   4   5   1  1.0      0.052308418
   9   5   4   1  1.0      0.052308418   10   3   3   1  1.0     -0.090290973
  10   4   4   1  1.0     -0.090290973   10   5   5   1  1.0     -0.125762396
   8   1   5   3  1.0      0.022751470    9   1   5   4  1.0      0.022751470
  10   1   3   3  1.0     -0.455477874   10   1   4   4  1.0     -0.455477874
  10   1   5   5  1.0     -0.471000397    8   3   5   2  1.0      0.036690115
   8   5   3   2  1.0      0.036690115    9   4   5   2  1.0      0.036690115
   9   5   4   2  1.0      0.036690115   10   3   3   2  1.0     -0.056039935
  10   4   4   2  1.0     -0.056039935   10   5   5   2  1.0     -0.077332931
   8   2   5   3  1.0      0.021886366    9   2   5   4  1.0      0.021886366
  10   2   3   3  1.0     -0.196774395   10   2   4   4  1.0     -0.196774395
  10   2   5   5  1.0     -0.199349773    8   3   3   3  1.0      0.283943614
   8   3   4   4  1.0      0.256355706    8   3   5   5  1.0      0.275852623
   8   4   4   3  1.0      0.013793954    8   5   5   3  1.0      0.033290870
   9   3   4   3  1.0      0.013793954    9   4   3   3  1.0      0.256355706
   9   4   4   4  1.0      0.283943614    9   4   5   5  1.0      0.275852623
   9   5   5   4  1.0      0.033290870   10   3   5   3  1.0     -0.026188658
  10   4   5   4  1.0     -0.026188658   10   5   3   3  1.0     -0.352893654
  10   5   4   4  1.0     -0.352893654   10   5   5   5  1.0     -0.402506840
  10   6   1   1  1.0     -0.179224543   10   1   6   1  1.0     -0.226545254
  10   6   2   1  1.0     -0.087688450   10   2   6   1  1.0     -0.091652971
  10   1   6   2  1.0     -0.191830297   10   6   2   2  1.0     -0.057522728
  10   2   6   2  1.0     -0.067619362    8   6   3   1  1.0      0.068253813
   9   6   4   1  1.0      0.068253813   10   6   5   1  1.0     -0.050256503
   8   3   6   1  1.0      0.140713220    9   4   6   1  1.0      0.140713220
  10   5   6   1  1.0     -0.209784688    8   1   6   3  1.0      0.030017470
   9   1   6   4  1.0      0.030017470   10   1   6   5  1.0     -0.240000244
   8   6   3   2  1.0      0.051466489    9   6   4   2  1.0      0.051466489
  10   6   5   2  1.0     -0.024034771    8   3   6   2  1.0      0.134874646
   9   4   6   2  1.0      0.134874646   10   5   6   2  1.0     -0.184130073
   8   2   6   3  1.0      0.030184809    9   2   6   4  1.0      0.030184809
  10   2   6   5  1.0     -0.095869679    8   6   5   3  1.0      0.041045754
   9   6   5   4  1.0      0.041045754   10   6   3   3  1.0     -0.152694104
  10   6   4   4  1.0     -0.152694104   10   6   5   5  1.0     -0.171878318
   8   3   6   5  1.0      0.158665434    8   5   6   3  1.0      0.036578066
   9   4   6   5  1.0      0.158665434    9   5   6   4  1.0      0.036578066
  10   3   6   3  1.0     -0.040448199   10   4   6   4  1.0     -0.040448199
  10   5   6   5  1.0     -0.251594022   10   6   6   1  1.0     -0.071193411
  10   1   6   6  1.0     -0.383306105   10   6   6   2  1.0     -0.022420733
  10   2   6   6  1.0     -0.119631523    8   6   6   3  1.0      0.052701484
   9   6   6   4  1.0      0.052701484   10   6   6   5  1.0     -0.078180860
   8   3   6   6  1.0      0.282178997    9   4   6   6  1.0      0.282178997
  10   5   6   6  1.0     -0.394781558   10   7   1   1  1.0     -0.135714478
  10   1   7   1  1.0     -0.221483808   10   7   2   1  1.0     -0.067274322
  10   2   7   1  1.0     -0.091776767   10   1   7   2  1.0     -0.240481407
  10   7   2   2  1.0     -0.046411583   10   2   7   2  1.0     -0.088630796
   8   7   3   1  1.0      0.051466489    9   7   4   1  1.0      0.051466489
  10   7   5   1  1.0     -0.024034771    8   3   7   1  1.0      0.134874646
   9   4   7   1  1.0      0.134874646   10   5   7   1  1.0     -0.184130073
   8   1   7   3  1.0      0.030184809    9   1   7   4  1.0      0.030184809
  10   1   7   5  1.0     -0.095869679    8   7   3   2  1.0      0.039012483
   9   7   4   2  1.0      0.039012483   10   7   5   2  1.0     -0.010381595
   8   3   7   2  1.0      0.166464135    9   4   7   2  1.0      0.166464135
  10   5   7   2  1.0     -0.208410777    8   2   7   3  1.0      0.030140382
   9   2   7   4  1.0      0.030140382   10   2   7   5  1.0     -0.038610827
   8   7   5   3  1.0      0.025937438    9   7   5   4  1.0      0.025937438
  10   7   3   3  1.0     -0.119914240   10   7   4   4  1.0     -0.119914240
  10   7   5   5  1.0     -0.119792850    8   3   7   5  1.0      0.066945237
   8   5   7   3  1.0      0.032771067    9   4   7   5  1.0      0.066945237
   9   5   7   4  1.0      0.032771067   10   3   7   3  1.0     -0.045129207
  10   4   7   4  1.0     -0.045129207   10   5   7   5  1.0     -0.112033733
  10   7   6   1  1.0     -0.048515976   10   6   7   1  1.0     -0.067561492
  10   1   7   6  1.0     -0.226543880   10   7   6   2  1.0     -0.015781330
  10   6   7   2  1.0     -0.031005321   10   2   7   6  1.0     -0.071528356
   8   7   6   3  1.0      0.035520772    9   7   6   4  1.0      0.035520772
  10   7   6   5  1.0     -0.047124491    8   6   7   3  1.0      0.046783828
   9   6   7   4  1.0      0.046783828   10   6   7   5  1.0     -0.034016087
   8   3   7   6  1.0      0.166047769    9   4   7   6  1.0      0.166047769
  10   5   7   6  1.0     -0.221814034   10   7   7   1  1.0     -0.050622345
  10   1   7   7  1.0     -0.256313633   10   7   7   2  1.0     -0.024646691
  10   2   7   7  1.0     -0.082718096    8   7   7   3  1.0      0.034567104
   9   7   7   4  1.0      0.034567104   10   7   7   5  1.0     -0.019169099
   8   3   7   7  1.0      0.186668617    9   4   7   7  1.0      0.186668617
  10   5   7   7  1.0     -0.231727148    8   8   1   1  1.0      0.615341713
   9   9   1   1  1.0      0.615341713   10  10   1   1  1.0      0.723319840
   8   1   8   1  1.0      0.031249185    9   1   9   1  1.0      0.031249185
  10   1  10   1  1.0      0.285344190    8   8   2   1  1.0      0.386275027
   9   9   2   1  1.0      0.386275027   10  10   2   1  1.0      0.425283749
   8   2   8   1  1.0      0.034306047    9   2   9   1  1.0      0.034306047
  10   2  10   1  1.0      0.124609215    8   8   2   2  1.0      0.486005673
   9   9   2   2  1.0      0.486005673   10  10   2   2  1.0      0.497470108
   8   2   8   2  1.0      0.044715496    9   2   9   2  1.0      0.044715496
  10   2  10   2  1.0      0.066404199    8   8   5   1  1.0      0.152694104
   9   9   5   1  1.0      0.152694104   10   8   3   1  1.0     -0.041045754
  10   9   4   1  1.0     -0.041045754   10  10   5   1  1.0      0.171878318
  10   1   8   3  1.0     -0.158665434    8   5   8   1  1.0      0.040448199
  10   1   9   4  1.0     -0.158665434    9   5   9   1  1.0      0.040448199
  10   3   8   1  1.0     -0.036578066   10   4   9   1  1.0     -0.036578066
  10   5  10   1  1.0      0.251594022    8   8   5   2  1.0      0.119914240
   9   9   5   2  1.0      0.119914240   10   8   3   2  1.0     -0.025937438
  10   9   4   2  1.0     -0.025937438   10  10   5   2  1.0      0.119792850
  10   2   8   3  1.0     -0.066945237    8   5   8   2  1.0      0.045129207
  10   2   9   4  1.0     -0.066945237    9   5   9   2  1.0      0.045129207
  10   3   8   2  1.0     -0.032771067   10   4   9   2  1.0     -0.032771067
  10   5  10   2  1.0      0.112033733    8   8   3   3  1.0      0.602400180
   8   8   4   4  1.0      0.573900577    8   8   5   5  1.0      0.659799108
   9   8   4   3  1.0      0.014249801    9   9   3   3  1.0      0.573900577
   9   9   4   4  1.0      0.602400180    9   9   5   5  1.0      0.659799108
  10   8   5   3  1.0     -0.022741955   10   9   5   4  1.0     -0.022741955
  10  10   3   3  1.0      0.659799108   10  10   4   4  1.0      0.659799108
  10  10   5   5  1.0      0.737455244    8   3   8   3  1.0      0.111907019
   8   4   8   4  1.0      0.006851450    8   5   8   5  1.0      0.056090539
   9   3   8   4  1.0      0.006851450    9   3   9   3  1.0      0.006851450
   9   4   8   3  1.0      0.098204119    9   4   9   4  1.0      0.111907019
   9   5   9   5  1.0      0.056090539   10   3   8   5  1.0     -0.042387638
  10   3  10   3  1.0      0.056090539   10   4   9   5  1.0     -0.042387638
  10   4  10   4  1.0      0.056090539   10   5   8   3  1.0     -0.147991324
  10   5   9   4  1.0     -0.147991324   10   5  10   5  1.0      0.256472983
   8   8   6   1  1.0      0.369563968    9   9   6   1  1.0      0.369563968
  10  10   6   1  1.0      0.395832656    8   6   8   1  1.0      0.064490308
   9   6   9   1  1.0      0.064490308   10   6  10   1  1.0      0.125077164
   8   8   6   2  1.0      0.408904051    9   9   6   2  1.0      0.408904051
  10  10   6   2  1.0      0.410906924    8   6   8   2  1.0      0.087083943
   9   6   9   2  1.0      0.087083943   10   6  10   2  1.0      0.091570201
   8   8   6   5  1.0      0.455477874    9   9   6   5  1.0      0.455477874
  10   8   6   3  1.0     -0.022751470   10   9   6   4  1.0     -0.022751470
  10  10   6   5  1.0      0.471000397    8   6   8   5  1.0      0.090290973
  10   3   8   6  1.0     -0.052308418    9   6   9   5  1.0      0.090290973
  10   4   9   6  1.0     -0.052308418   10   6   8   3  1.0     -0.052308418
  10   6   9   4  1.0     -0.052308418   10   6  10   5  1.0      0.125762396
   8   8   6   6  1.0      0.945332484    9   9   6   6  1.0      0.945332484
  10  10   6   6  1.0      0.945332484    8   6   8   6  1.0      0.188086433
   9   6   9   6  1.0      0.188086433   10   6  10   6  1.0      0.188086433
   8   8   7   1  1.0      0.327204824    9   9   7   1  1.0      0.327204824
  10  10   7   1  1.0      0.354025198    8   7   8   1  1.0      0.042087322
   9   7   9   1  1.0      0.042087322   10   7  10   1  1.0      0.085065421
   8   8   7   2  1.0      0.468381315    9   9   7   2  1.0      0.468381315
  10  10   7   2  1.0      0.471647506    8   7   8   2  1.0      0.058200431
   9   7   9   2  1.0      0.058200431   10   7  10   2  1.0      0.061497125
   8   8   7   5  1.0      0.196774395    9   9   7   5  1.0      0.196774395
  10   8   7   3  1.0     -0.021886366   10   9   7   4  1.0     -0.021886366
  10  10   7   5  1.0      0.199349773    8   7   8   5  1.0      0.056039935
  10   3   8   7  1.0     -0.036690115    9   7   9   5  1.0      0.056039935
  10   4   9   7  1.0     -0.036690115   10   7   8   3  1.0     -0.036690115
  10   7   9   4  1.0     -0.036690115   10   7  10   5  1.0      0.077332931
   8   8   7   6  1.0      0.536499763    9   9   7   6  1.0      0.536499763
  10  10   7   6  1.0      0.536499763    8   7   8   6  1.0      0.116424237
   9   7   9   6  1.0      0.116424237   10   7  10   6  1.0      0.116424237
   8   8   7   7  1.0      0.572969268    9   9   7   7  1.0      0.572969268
  10  10   7   7  1.0      0.572969268    8   7   8   7  1.0      0.077609457
   9   7   9   7  1.0      0.077609457   10   7  10   7  1.0      0.077609457
  10   1   8   8  1.0     -0.349995828   10   1   9   9  1.0     -0.349995828
  10   8   8   1  1.0     -0.019315048   10   9   9   1  1.0     -0.019315048
  10  10  10   1  1.0     -0.411890365   10   2   8   8  1.0     -0.111399950
  10   2   9   9  1.0     -0.111399950   10   8   8   2  1.0     -0.007148666
  10   9   9   2  1.0     -0.007148666   10  10  10   2  1.0     -0.126013241
   8   8   8   3  1.0      0.283943614    9   4   8   8  1.0      0.256355706
  10   5   8   8  1.0     -0.352893654    9   8   8   4  1.0      0.013793954
   9   8   9   3  1.0      0.013793954    9   9   8   3  1.0      0.256355706
   9   9   9   4  1.0      0.283943614   10   5   9   9  1.0     -0.352893654
  10   8   8   5  1.0     -0.026188658   10   8  10   3  1.0      0.033290870
  10   9   9   5  1.0     -0.026188658   10   9  10   4  1.0      0.033290870
  10  10   8   3  1.0      0.275852623   10  10   9   4  1.0      0.275852623
  10  10  10   5  1.0     -0.402506840    8   8   8   8  1.0      0.966487478
   9   8   9   8  1.0      0.059172703    9   9   8   8  1.0      0.848142072
   9   9   9   9  1.0      0.966487478   10   8  10   8  1.0      0.059172703
  10   9  10   9  1.0      0.059172703   10  10   8   8  1.0      0.848142072
  10  10   9   9  1.0      0.848142072   10  10  10  10  1.0      0.966487478
 TOTAL NUMBER OF NONZERO TWO-ELECTRON INTEGRALS =                 512
          1 INTEGRAL RECORDS WERE STORED ON DISK FILE  8.
  ...... END OF TWO-ELECTRON INTEGRALS .....
 STEP CPU TIME =     0.02 TOTAL CPU TIME =          0.0 (      0.0 MIN)
 TOTAL WALL CLOCK TIME=          0.0 SECONDS, CPU UTILIZATION IS    66.67%

          -----------------
          MCSCF CALCULATION
          -----------------

 ----- NUCLEAR ENERGY ----- =         0.7142857143

     --------------------------------------------------
          AMES LABORATORY DETERMINANTAL FULL CI
     PROGRAM WRITTEN BY JOE IVANIC AND KLAUS RUEDENBERG
     --------------------------------------------------

 THE POINT GROUP                  =   C1      
 THE STATE SYMMETRY               =   A       
 NUMBER OF CORE ORBITALS          =    0
 NUMBER OF ACTIVE ORBITALS        =    2
 NUMBER OF ALPHA ELECTRONS        =    1 (   1 ACTIVE)
 NUMBER OF BETA ELECTRONS         =    1 (   1 ACTIVE)
 NUMBER OF OCCUPIED ORBITALS      =    2
 NUMBER OF CI STATES REQUESTED    =    1
 NUMBER OF CI STARTING VECTORS    =    1
 MAX. NO. OF CI EXPANSION VECTORS =   10
 SIZE OF INITIAL CI GUESS MATRIX  =  300
 MAX. NO. OF CI ITERS/STATE       =  100
 CI DIAGONALIZATION CRITERION     = 1.00E-06
 PURE SPIN STATE AVERAGED 1E- AND 2E- DENSITY MATRIX OPTION=.T.
 STATE=   1 DM2 WEIGHT=   1.00000

 CORRELATION ENERGY ANALYSIS      =    F

 SYMMETRIES FOR THE   0 CORE,   2 ACTIVE ARE

   ACTIVE= A     A   
 OPENING FILE DAFL30 WITH      81 LOGICAL RECORDS OF     361 WORDS
 WITH A MAXIMUM OF          81 PHYSICAL RECORDS OF    2048 WORDS

          ------------------------------
          CASSCF INTEGRAL TRANSFORMATION
          ------------------------------
 AO INTEGRALS WILL BE READ IN FROM DISK...

 NUMBER OF CORE MOLECULAR ORBITALS     =     0
 NUMBER OF OCCUPIED MOLECULAR ORBITALS =     2
 TOTAL NUMBER OF MOLECULAR ORBITALS    =    10
 TOTAL NUMBER OF ATOMIC ORBITALS       =    10

 ----- CHOOSING THREE STEPS TRANSFORMATION -----
 NUMBER OF WORDS USED      =      61541
 NUMBER OF WORDS AVAILABLE =    1000000
 NUMBER OF PASSES          =          1

 ----- NUCLEAR REPULSION ENERGY =      0.71428571
 ----- FROZEN CORE ENERGY       =      0.00000000

 ... SYMMETRY ...           CPU =    0.00
 ... (PQ|RS) -> (PQ|KL) ... CPU =    0.00
 ... (PQ|KL) -> (IJ|KL) ... CPU =    0.00

 NUMBER OF (PQ|KL) INTEGRALS WRITTEN         76
 NUMBER OF (IJ|KL) INTEGRALS WRITTEN          4
 ..... END OF CAS INTEGRAL TRANSFORMATION .....
 STEP CPU TIME =     0.00 TOTAL CPU TIME =          0.0 (      0.0 MIN)
 TOTAL WALL CLOCK TIME=          0.0 SECONDS, CPU UTILIZATION IS    66.67%

     --------------------------------------------------
          AMES LABORATORY DETERMINANTAL FULL CI
     PROGRAM WRITTEN BY JOE IVANIC AND KLAUS RUEDENBERG
     --------------------------------------------------

 THE NUMBER OF DETERMINANTS HAVING SPACE SYMMETRY A  
 IN POINT GROUP C1   WITH SZ=  0.0 IS              4
 WHICH INCLUDES              3 CSFS WITH S=  0.0
 WHICH INCLUDES              1 CSFS WITH S=  1.0
 THE DETERMINANT FULL CI REQUIRES          169641 WORDS
 SMALL CI MATRIX, JUST USING INCORE DIAGONALIZATION...

 CI EIGENVECTORS WILL BE LABELED IN GROUP=C1      
 PRINTING ALL NON-ZERO CI COEFFICIENTS

 STATE   1  ENERGY=        -1.1363850222  S=  0.00  SZ=  0.00  SPACE SYM=A   

 ALP| BET| CI COEFFICIENT
----|----|---------------
 10 | 10 |                                                                                                       0.9977712615
 01 | 01 |                                                                                                      -0.0667271296
 ..... DONE WITH DETERMINANT CI COMPUTATION .....
 STEP CPU TIME =     0.00 TOTAL CPU TIME =          0.0 (      0.0 MIN)
 TOTAL WALL CLOCK TIME=          0.0 SECONDS, CPU UTILIZATION IS    66.67%

     --------------------------------------------------
      ONE AND TWO PARTICLE DENSITY MATRIX COMPUTATION
     PROGRAM WRITTEN BY JOE IVANIC AND KLAUS RUEDENBERG
     --------------------------------------------------

      30096 WORDS WILL BE USED TO FORM THE DENSITIES
 THE DENSITIES ARE STATE AVERAGED OVER   1 ROOT(S)
 STATE=   1   ENERGY=       -1.1363850222   WEIGHT= 1.00000   S=  0.00
 SIEVING THE A    SYMMETRY NONZERO DENSITY ELEMENTS IN GROUP C1      
          3 NONZERO DM2 ELEMENTS WRITTEN IN       1 RECORDS TO FILE 15
 ..... DONE WITH 1 AND 2 PARTICLE DENSITY MATRIX .....
 STEP CPU TIME =     0.00 TOTAL CPU TIME =          0.0 (      0.0 MIN)
 TOTAL WALL CLOCK TIME=          0.0 SECONDS, CPU UTILIZATION IS    66.67%

          --------------------------------------
          APPROXIMATE SECOND-ORDER MCSCF PROGRAM
          --------------------------------------
          PROGRAM WRITTEN BY G.CHABAN, A.MARQUEZ, AND M.DUPUIS

  NUMBER OF WORDS NEEDED     =      30917
  NUMBER AVAILABLE           =    1000000

 ----- GAMMA(IJKL)*(PQ|KL) PRODUCTS ----- CPU TIME =      0.000
 ----- ORBITAL SYMMETRY             ----- CPU TIME =      0.000
 ----- FOCK OPERATORS CONSTRUCTION  ----- CPU TIME =      0.000
     MICIT =   1 ASYMM =    0.011363 ROTMAX =    0.042011
 ----- EFFECTIVE FOCK + ROTATE ORBS ----- CPU TIME =      0.000
     MICIT =   2 ASYMM =    0.010639 ROTMAX =    0.013021
     MICIT =   3 ASYMM =    0.010408 ROTMAX =    0.055190
     MICIT =   4 ASYMM =    0.009411 ROTMAX =    0.061084
     MICIT =   5 ASYMM =    0.008273 ROTMAX =    0.051790
 ..... DONE WITH CASSCF ORBITAL UPDATE .....
 STEP CPU TIME =     0.00 TOTAL CPU TIME =          0.0 (      0.0 MIN)
 TOTAL WALL CLOCK TIME=          0.0 SECONDS, CPU UTILIZATION IS    66.67%

 ITER     TOTAL ENERGY      DEL(E)  LAGRANGIAN ASYMMETRY   SQCDF  MICIT   DAMP
   1       -1.136385022 -0.136385022  0.011363    4    2 4.201E-02  5   0.0000
       ----------START APPROXIMATE SECOND ORDER MCSCF----------
   2       -1.142598737 -0.006213715  0.014340    4    2 7.448E-02  1   0.0000
   3       -1.148621828 -0.006023091  0.010767    7    1 3.296E-02  1   0.0000
   4       -1.149491036 -0.000869208  0.003728    7    1 9.360E-04  1   0.0000
   5       -1.149535397 -0.000044361  0.000621    3    1 2.137E-05  1   0.0000
   6       -1.149536247 -0.000000850  0.000128    7    1 2.236E-08  1   0.0000
   7       -1.149536253 -0.000000006  0.000022    7    1 3.136E-10  1   0.0000
   8       -1.149536253 -0.000000000  0.000000    7    1 1.573E-13  1   0.0000

          --------------------
          LAGRANGIAN CONVERGED
          --------------------

 FINAL MCSCF ENERGY IS       -1.1495362529 AFTER   8 ITERATIONS

 -MCCI- BASED ON OPTIMIZED ORBITALS
 ----------------------------------

 PLEASE NOTE: IF THE ACTIVE ORBITALS ARE CANONICALIZED BELOW,
 THE FOLLOWING CI EXPANSION COEFFICIENTS AND THE DENSITY DO NOT
 CORRESPOND TO THE PRINTED ORBITALS.  THE PRINTED EXPANSIONS MATCH
 THE ORBITALS USED DURING THE LAST ITERATION.  IF YOU WISH TO SEE
 CI EXPANSIONS BASED ON THE CANONICAL (OR NATURAL) ORBITALS, YOU
 MUST RUN A CI CALCULATION WITH THAT ORBITAL CHOICE READ IN $VEC.

 CI EIGENVECTORS WILL BE LABELED IN GROUP=C1      
 PRINTING ALL NON-ZERO CI COEFFICIENTS

 STATE   1  ENERGY=        -1.1495362529  S=  0.00  SZ=  0.00  SPACE SYM=A   

 ALP| BET| CI COEFFICIENT
----|----|---------------
 10 | 10 |                                                                                                       0.9942589585
 01 | 01 |                                                                                                      -0.1070005764

 DENSITY MATRIX OVER ACTIVE MO-S

             1           2

    1    1.9771018
    2    0.0000000   0.0228982

 FORMING THE "STANDARD FOCK OPERATOR" USING INTEGRALS FROM DISK...
     0 FILLED,    2 ACTIVE, AND    8 VIRTUAL ORBITALS  WILL BE CANONICALIZED

          ----------------------
          MCSCF NATURAL ORBITALS
          ----------------------

                      1          2
                    1.9771     0.0229
                     A          A   
    1  H  1  S    0.325206   0.735696
    2  H  1  S    0.269879   0.552410
    3  H  1  X   -0.000000   0.000000
    4  H  1  Y   -0.000000   0.000000
    5  H  1  Z    0.015311  -0.043405
    6  H  2  S    0.325206  -0.735696
    7  H  2  S    0.269879  -0.552410
    8  H  2  X   -0.000000   0.000000
    9  H  2  Y   -0.000000   0.000000
   10  H  2  Z   -0.015311  -0.043405

 LZ VALUE ANALYSIS FOR THE MOS
 ----------------------------------------
 MO     1 (    1) HAS LZ(WEIGHT)= 0.00(100.0%) 
 MO     2 (    2) HAS LZ(WEIGHT)= 0.00(100.0%) 
 MO     3 (    3) HAS LZ(WEIGHT)= 0.00(100.0%) 
 MO     4 (    4) HAS LZ(WEIGHT)= 0.00(100.0%) 
 MO     5 (    5) HAS LZ(WEIGHT)=-1.00( 50.0%)  1.00( 50.0%) 
 MO     6 (    5) HAS LZ(WEIGHT)=-1.00( 50.0%)  1.00( 50.0%) 
 MO     7 (    6) HAS LZ(WEIGHT)= 0.00(100.0%) 
 MO     8 (    7) HAS LZ(WEIGHT)=-1.00( 50.0%)  1.00( 50.0%) 
 MO     9 (    7) HAS LZ(WEIGHT)=-1.00( 50.0%)  1.00( 50.0%) 
 MO    10 (    8) HAS LZ(WEIGHT)= 0.00(100.0%) 

          ------------------------
          MCSCF OPTIMIZED ORBITALS
          ------------------------

                      1          2          3          4          5
                   -0.5872     0.6453     0.7734     0.9266     1.9632
                     A          A          A          A          A   
    1  H  1  S    0.325206   0.735696   0.744108  -0.649438  -0.000000
    2  H  1  S    0.269879   0.552410  -0.679353   2.143066  -0.000000
    3  H  1  X   -0.000000   0.000000  -0.000000   0.000000   0.554738
    4  H  1  Y   -0.000000   0.000000  -0.000000   0.000000  -0.255585
    5  H  1  Z    0.015311  -0.043405   0.035324   0.209151  -0.000000
    6  H  2  S    0.325206  -0.735696   0.744108   0.649438  -0.000000
    7  H  2  S    0.269879  -0.552410  -0.679353  -2.143066  -0.000000
    8  H  2  X   -0.000000   0.000000  -0.000000   0.000000   0.554738
    9  H  2  Y   -0.000000   0.000000  -0.000000   0.000000  -0.255585
   10  H  2  Z   -0.015311  -0.043405  -0.035324   0.209151  -0.000000

                      6          7          8          9         10
                    1.9632     2.7090     2.9339     2.9339     4.5122
                     A          A          A          A          A   
    1  H  1  S   -0.000000   0.384134  -0.000000   0.000000   1.385279
    2  H  1  S   -0.000000  -0.187573  -0.000000   0.000000   0.143535
    3  H  1  X    0.255585  -0.000000  -0.460380  -0.738879   0.000000
    4  H  1  Y    0.554738  -0.000000   0.738879  -0.460380   0.000000
    5  H  1  Z   -0.000000  -0.647592  -0.000000   0.000000   1.587162
    6  H  2  S   -0.000000   0.384134  -0.000000   0.000000  -1.385279
    7  H  2  S   -0.000000  -0.187573  -0.000000   0.000000  -0.143535
    8  H  2  X    0.255585  -0.000000   0.460380   0.738879   0.000000
    9  H  2  Y    0.554738  -0.000000  -0.738879   0.460380   0.000000
   10  H  2  Z   -0.000000   0.647592  -0.000000   0.000000   1.587162
 .....DONE WITH MCSCF ITERATIONS.....
 STEP CPU TIME =     0.01 TOTAL CPU TIME =          0.0 (      0.0 MIN)
 TOTAL WALL CLOCK TIME=          0.0 SECONDS, CPU UTILIZATION IS   100.00%

     ----------------------------------------------------------------
     PROPERTY VALUES FOR THE MCSCF SELF-CONSISTENT FIELD WAVEFUNCTION
     ----------------------------------------------------------------

          -----------------
          ENERGY COMPONENTS
          -----------------

         WAVEFUNCTION NORMALIZATION =       1.0000000000

                ONE ELECTRON ENERGY =      -2.4878587531
                TWO ELECTRON ENERGY =       0.6240367859
           NUCLEAR REPULSION ENERGY =       0.7142857143
                                      ------------------
                       TOTAL ENERGY =      -1.1495362529

 ELECTRON-ELECTRON POTENTIAL ENERGY =       0.6240367859
  NUCLEUS-ELECTRON POTENTIAL ENERGY =      -3.6553043162
   NUCLEUS-NUCLEUS POTENTIAL ENERGY =       0.7142857143
                                      ------------------
             TOTAL POTENTIAL ENERGY =      -2.3169818160
               TOTAL KINETIC ENERGY =       1.1674455631
                 VIRIAL RATIO (V/T) =       1.9846594045

          ---------------------------------------
          MULLIKEN AND LOWDIN POPULATION ANALYSES
          ---------------------------------------

               ----- POPULATIONS IN EACH AO -----
                             MULLIKEN      LOWDIN
              1  H  1  S      0.51977     0.47802
              2  H  1  S      0.47323     0.50312
              3  H  1  X      0.00000     0.00000
              4  H  1  Y      0.00000     0.00000
              5  H  1  Z      0.00700     0.01886
              6  H  2  S      0.51977     0.47802
              7  H  2  S      0.47323     0.50312
              8  H  2  X      0.00000     0.00000
              9  H  2  Y      0.00000     0.00000
             10  H  2  Z      0.00700     0.01886

          ----- MULLIKEN ATOMIC OVERLAP POPULATIONS -----
          (OFF-DIAGONAL ELEMENTS NEED TO BE MULTIPLIED BY 2)

             1           2

    1    0.6136953
    2    0.3863047   0.6136953

          TOTAL MULLIKEN AND LOWDIN ATOMIC POPULATIONS
       ATOM         MULL.POP.    CHARGE          LOW.POP.     CHARGE
    1 H             1.000000   -0.000000         1.000000   -0.000000
    2 H             1.000000    0.000000         1.000000    0.000000

          ---------------------
          ELECTROSTATIC MOMENTS
          ---------------------

 POINT   1           X           Y           Z (BOHR)    CHARGE
                 0.000000    0.000000    0.000000       -0.00 (A.U.)
         DX          DY          DZ         /D/  (DEBYE)
     0.000000    0.000000    0.000000    0.000000
 ...... END OF PROPERTY EVALUATION ......
 STEP CPU TIME =     0.00 TOTAL CPU TIME =          0.0 (      0.0 MIN)
 TOTAL WALL CLOCK TIME=          0.0 SECONDS, CPU UTILIZATION IS    75.00%

 GENERAL CI OPTIONS       NRNFG   NPFLG
 INTEGRAL TRANSFORMATION    1       0
 DIAGONALIZE HAMILTONIAN    1       0
 FORM 1E- DENSITY MATRIX    1       0
 FORM 2E- DENSITY MATRIX    0       0

     --------------------------------------------------
         AMES LABORATORY DETERMINANTAL GENERAL CI
     PROGRAM WRITTEN BY JOE IVANIC AND KLAUS RUEDENBERG
     --------------------------------------------------

 THE POINT GROUP                  =   C1      
 THE STATE SYMMETRY               =   A       
 NUMBER OF CORE ORBITALS          =    0
 NUMBER OF ACTIVE ORBITALS        =    2
 NUMBER OF ALPHA ELECTRONS        =    1 (   1 ACTIVE)
 NUMBER OF BETA ELECTRONS         =    1 (   1 ACTIVE)
 NUMBER OF OCCUPIED ORBITALS      =    2
 NUMBER OF CI STATES REQUESTED    =    1
 NUMBER OF CI STARTING VECTORS    =    1
 MAX. NO. OF CI EXPANSION VECTORS =   10
 SIZE OF INITIAL CI GUESS MATRIX  =  300
 MAX. NO. OF CI ITERS/STATE       =  100
 CI DIAGONALIZATION CRITERION     = 1.00E-06

 GLIST SPECIFICATION              =   INPUT   

 CI PROPERTIES WILL BE FOUND FOR ROOT NUMBER   1
 1E- DENSITY MATRIX OPTIONS ARE 1

 CORRELATION ENERGY ANALYSIS      =    F

 SYMMETRIES FOR THE   0 CORE,   2 ACTIVE ARE

   ACTIVE= A     A   

     --------------------------------------------------
      READING GENERAL CI LIST FROM $GCILST GROUP 
     --------------------------------------------------

 NUMBER OF SPACE PRODUCTS TO BE READ IN =      3

 WILL CHECK THAT SPACE PRODUCTS HAVE CORRECT IRREP.

 *** NOTE THAT IRREP NUMBERS BELOW CORRESPOND
 WITH DETERMINANT CODE LABELLING

 NO OF UNIQUE SPACE PRODUCTS READ =      3

 NUMBER OF DETERMINANTS WRITTEN TO DISK =      3

 THESE WILL BE SPIN COMPLEMENTED LATER.

     --------------------------------------------
     PARTIAL TWO ELECTRON INTEGRAL TRANSFORMATION
     --------------------------------------------

 NUMBER OF CORE MOLECULAR ORBITALS     =    0
 NUMBER OF OCCUPIED MOLECULAR ORBITALS =    2
 TOTAL NUMBER OF MOLECULAR ORBITALS    =    2
 TOTAL NUMBER OF ATOMIC ORBITALS       =   10
 THRESHOLD FOR KEEPING TRANSFORMED 2E- INTEGRALS = 1.000E-09
 AO INTEGRALS WILL BE READ IN FROM DISK...

 PLAN A: REQUIREMENTS FOR FULLY IN-MEMORY TRANSFORMATION:
 # OF WORDS AVAILABLE =              1000000
 # OF WORDS NEEDED    =                61622

 CHOOSING IN MEMORY PARTIAL TRANSFORMATION...
 TOTAL NUMBER OF TRANSFORMED 2E- INTEGRALS KEPT =            4
 ... END OF INTEGRAL TRANSFORMATION ...
 STEP CPU TIME =     0.00 TOTAL CPU TIME =          0.0 (      0.0 MIN)
 TOTAL WALL CLOCK TIME=          0.0 SECONDS, CPU UTILIZATION IS    75.00%

     --------------------------------------------------
         AMES LABORATORY DETERMINANTAL GENERAL CI
     PROGRAM WRITTEN BY JOE IVANIC AND KLAUS RUEDENBERG
     --------------------------------------------------

 NUMBER OF DETERMINANTS TO BE READ IN   =               3
 MEMORY FOR DETERMINANT LIST STORAGE    =               18 WORDS
 MEMORY FOR SORTING AND FULL LISTS      =               37 WORDS
 TIME TAKEN FOR SORTING:                  0.0
 MEMORY FOR SPIN CONSISTENCY CHECK      =               41 WORDS
 TIME TAKEN FOR SPIN CHECK:               0.0

 **************************************************
 DETERMINANT LIST IS NOT SPIN CONSISTENT
 NUMBER OF EXTRA DETERIMINANTS NEEDED     =       1
 DETERMINANT LIST WILL BE AMENDED TO INCLUDE EXTRAS
 TOTAL NUMBER OF DETERMINANTS IN LIST NOW =       4
 **************************************************

 MEMORY FOR DETERMINANT LIST STORAGE    =               20 WORDS
 MEMORY FOR SORTING AND FULL LISTS      =               39 WORDS
 TIME TAKEN FOR SORTING:                  0.0
 OLD LIST HAS BEEN OVERWRITTEN WITH NEW EXPANDED LIST
 NUMBER OF FULL SPACE DETERMINANTS FOR ACTIVE SPACE =          4
 THE DETERMINANT GENERAL CI REQUIRES          169338 WORDS
 SMALL CI MATRIX, JUST USING INCORE DIAGONALIZATION

 CI EIGENVECTORS WILL BE LABELED IN GROUP=C1      
 PRINTING ALL NON-ZERO CI COEFFICIENTS

 STATE   1  ENERGY=        -1.1495362529  S=  0.00  SZ=  0.00  SPACE SYM=A   

ALPH|BETA| COEFFICIENT
----|----|------------
 10 | 10 |   0.9942590
 01 | 01 |  -0.1070006
 ..... DONE WITH GENERAL CI COMPUTATION .....
 STEP CPU TIME =     0.00 TOTAL CPU TIME =          0.0 (      0.0 MIN)
 TOTAL WALL CLOCK TIME=          0.0 SECONDS, CPU UTILIZATION IS    75.00%

     ---------------------------
     ONE PARTICLE DENSITY MATRIX
     ---------------------------

 DENSITY MATRIX WILL BE SAVED FOR   1-TH STATE WITH S= 0.00

 CI EIGENSTATE   1 TOTAL ENERGY =       -1.1495362529

          NATURAL ORBITALS IN ATOMIC ORBITAL BASIS
          ----------------------------------------

                      1          2
                    1.9771     0.0229
                     A          A   
    1  H  1  S    0.325206   0.735696
    2  H  1  S    0.269879   0.552410
    3  H  1  X   -0.000000   0.000000
    4  H  1  Y   -0.000000   0.000000
    5  H  1  Z    0.015311  -0.043405
    6  H  2  S    0.325206  -0.735696
    7  H  2  S    0.269879  -0.552410
    8  H  2  X   -0.000000   0.000000
    9  H  2  Y   -0.000000   0.000000
   10  H  2  Z   -0.015311  -0.043405
 ..... DONE WITH ONE PARTICLE DENSITY MATRIX .....
 STEP CPU TIME =     0.00 TOTAL CPU TIME =          0.0 (      0.0 MIN)
 TOTAL WALL CLOCK TIME=          0.0 SECONDS, CPU UTILIZATION IS    75.00%

     --------------------------------------------------------
     GENCI CI PROPERTIES...FOR THE WAVEFUNCTION OF STATE    1
               USING THE EXPECTATION VALUE DENSITY
     --------------------------------------------------------

          -----------------
          ENERGY COMPONENTS
          -----------------

         WAVEFUNCTION NORMALIZATION =       1.0000000000

                ONE ELECTRON ENERGY =      -2.4878587454
                TWO ELECTRON ENERGY =       0.6240367782
           NUCLEAR REPULSION ENERGY =       0.7142857143
                                      ------------------
                       TOTAL ENERGY =      -1.1495362529

 ELECTRON-ELECTRON POTENTIAL ENERGY =       0.6240367782
  NUCLEUS-ELECTRON POTENTIAL ENERGY =      -3.6553043183
   NUCLEUS-NUCLEUS POTENTIAL ENERGY =       0.7142857143
                                      ------------------
             TOTAL POTENTIAL ENERGY =      -2.3169818257
               TOTAL KINETIC ENERGY =       1.1674455728
                 VIRIAL RATIO (V/T) =       1.9846593963

          ---------------------------------------
          MULLIKEN AND LOWDIN POPULATION ANALYSES
          ---------------------------------------

               ----- POPULATIONS IN EACH AO -----
                             MULLIKEN      LOWDIN
              1  H  1  S      0.51977     0.47802
              2  H  1  S      0.47323     0.50312
              3  H  1  X      0.00000     0.00000
              4  H  1  Y      0.00000     0.00000
              5  H  1  Z      0.00700     0.01886
              6  H  2  S      0.51977     0.47802
              7  H  2  S      0.47323     0.50312
              8  H  2  X      0.00000     0.00000
              9  H  2  Y      0.00000     0.00000
             10  H  2  Z      0.00700     0.01886

          ----- MULLIKEN ATOMIC OVERLAP POPULATIONS -----
          (OFF-DIAGONAL ELEMENTS NEED TO BE MULTIPLIED BY 2)

             1           2

    1    0.6136953
    2    0.3863047   0.6136953

          TOTAL MULLIKEN AND LOWDIN ATOMIC POPULATIONS
       ATOM         MULL.POP.    CHARGE          LOW.POP.     CHARGE
    1 H             1.000000   -0.000000         1.000000   -0.000000
    2 H             1.000000    0.000000         1.000000    0.000000

          ---------------------
          ELECTROSTATIC MOMENTS
          ---------------------

 POINT   1           X           Y           Z (BOHR)    CHARGE
                 0.000000    0.000000    0.000000        0.00 (A.U.)
         DX          DY          DZ         /D/  (DEBYE)
     0.000000    0.000000    0.000000    0.000000
 ...... END OF PROPERTY EVALUATION ......
 STEP CPU TIME =     0.00 TOTAL CPU TIME =          0.0 (      0.0 MIN)
 TOTAL WALL CLOCK TIME=          0.0 SECONDS, CPU UTILIZATION IS    75.00%
               580000  WORDS OF DYNAMIC MEMORY USED
 EXECUTION OF GAMESS TERMINATED NORMALLY Wed Jul 18 15:26:24 2018
 DDI: 263640 bytes (0.3 MB / 0 MWords) used by master data server.

 ----------------------------------------
 CPU timing information for all processes
 ========================================
 0: 0.24 + 0.12 = 0.37
 ----------------------------------------
 ddikick.x: exited gracefully.
----- accounting info -----
Files used on the master node labodang001 were:
-rw-rw-r-- 1 jnicolas jnicolas    3785 Jul 18 15:26 /tmp/2e.dat
-rw-rw-r-- 1 jnicolas jnicolas    2019 Jul 18 15:26 /tmp/2e.F05
-rw-rw-r-- 1 jnicolas jnicolas  180016 Jul 18 15:26 /tmp/2e.F08
-rw-rw-r-- 1 jnicolas jnicolas  180048 Jul 18 15:26 /tmp/2e.F09
-rw-rw-r-- 1 jnicolas jnicolas 2257680 Jul 18 15:26 /tmp/2e.F10
-rw-rw-r-- 1 jnicolas jnicolas      64 Jul 18 15:26 /tmp/2e.F12
-rw-rw-r-- 1 jnicolas jnicolas     880 Jul 18 15:26 /tmp/2e.F13
-rw-rw-r-- 1 jnicolas jnicolas  180048 Jul 18 15:26 /tmp/2e.F15
-rw-rw-r-- 1 jnicolas jnicolas    2448 Jul 18 15:26 /tmp/2e.F23
-rw-rw-r-- 1 jnicolas jnicolas      96 Jul 18 15:26 /tmp/2e.F37
Wed Jul 18 15:26:27 EDT 2018
0.0u 0.0s 0:03.12 2.2% 0+0k 0+16io 0pf+0w
