----- GAMESS execution script 'rungms' -----
This job is running on host labodang001
under operating system Linux at Thu Jul 26 14:26:12 EDT 2018
Available scratch disk space (Kbyte units) at beginning of the job is
Filesystem     1K-blocks     Used Available Use% Mounted on
/dev/sda1       49601260 33262876  13795692  71% /
GAMESS temporary binary files will be written to /tmp
GAMESS supplementary output files will be written to /tmp
Copying input file 1e.inp to your run's scratch directory...

 Distributed Data Interface kickoff program.
 Initiating 1 compute processes on 1 nodes to run the following command:
 /opt/gamess/gamess.00.x 1e 

          ******************************************************
          *         GAMESS VERSION = 14 FEB 2018 (R1)         *
          *             FROM IOWA STATE UNIVERSITY             *
          * M.W.SCHMIDT, K.K.BALDRIDGE, J.A.BOATZ, S.T.ELBERT, *
          *   M.S.GORDON, J.H.JENSEN, S.KOSEKI, N.MATSUNAGA,   *
          *          K.A.NGUYEN, S.J.SU, T.L.WINDUS,           *
          *       TOGETHER WITH M.DUPUIS, J.A.MONTGOMERY       *
          *         J.COMPUT.CHEM.  14, 1347-1363(1993)        *
          **************** 64 BIT LINUX VERSION ****************

  SINCE 1993, STUDENTS AND POSTDOCS WORKING AT IOWA STATE UNIVERSITY
  AND ALSO IN THEIR VARIOUS JOBS AFTER LEAVING ISU HAVE MADE IMPORTANT
  CONTRIBUTIONS TO THE CODE:
     IVANA ADAMOVIC, CHRISTINE AIKENS, YURI ALEXEEV, POOJA ARORA,
     ANDREY ASADCHEV, ROB BELL, PRADIPTA BANDYOPADHYAY, JONATHAN BENTZ,
     BRETT BODE, KURT BRORSEN, CALEB CARLIN, GALINA CHABAN, WEI CHEN,
     CHEOL HO CHOI, PAUL DAY, ALBERT DEFUSCO, NUWAN DESILVA, TIM DUDLEY,
     DMITRI FEDOROV, ALEX FINDLATER, GRAHAM FLETCHER, MARK FREITAG,
     KURT GLAESEMANN, ANASTASIA GUININA,
     DAN KEMP, GRANT MERRILL, NORIYUKI MINEZAWA, JONATHAN MULLIN,
     TAKESHI NAGATA, SEAN NEDD, HEATHER NETZLOFF, BOSILJKA NJEGIC, RYAN OLSON,
     MIKE PAK, BUU PHAM,
     SPENCER PRUITT, LUKE ROSKOP, JIM SHOEMAKER, LYUDMILA SLIPCHENKO,
     TONY SMITH, SAROM SOK LEANG, JIE SONG, TETSUYA TAKETSUGU, SIMON WEBB,
     PENG XU, SOOHAENG YOO, FEDERICO ZAHARIEV

  ADDITIONAL CODE HAS BEEN PROVIDED BY COLLABORATORS IN OTHER GROUPS:
     IOWA STATE UNIVERSITY:
          JOE IVANIC, AARON WEST, LAIMUTIS BYTAUTAS, KLAUS RUEDENBERG
     UNIVERSITY OF TOKYO: KIMIHIKO HIRAO, TAKAHITO NAKAJIMA,
          TAKAO TSUNEDA, MUNEAKI KAMIYA, SUSUMU YANAGISAWA,
          KIYOSHI YAGI, MAHITO CHIBA, SEIKEN TOKURA, NAOAKI KAWAKAMI
     UNIVERSITY OF AARHUS: FRANK JENSEN
     UNIVERSITY OF IOWA: VISVALDAS KAIRYS, HUI LI
     NATIONAL INST. OF STANDARDS AND TECHNOLOGY: WALT STEVENS, DAVID GARMER
     UNIVERSITY OF PISA: BENEDETTA MENNUCCI, JACOPO TOMASI
     UNIVERSITY OF MEMPHIS: HENRY KURTZ, PRAKASHAN KORAMBATH
     UNIVERSITY OF ALBERTA: TOBY ZENG, MARIUSZ KLOBUKOWSKI
     UNIVERSITY OF NEW ENGLAND: MARK SPACKMAN
     MIE UNIVERSITY: HIROAKI UMEDA
     NAT. INST. OF ADVANCED INDUSTRIAL SCIENCE AND TECHNOLOGY: KAZUO KITAURA
     MICHIGAN STATE UNIVERSITY:
          KAROL KOWALSKI, MARTA WLOCH, JEFFREY GOUR, JESSE LUTZ,
          WEI LI, PIOTR PIECUCH
     UNIVERSITY OF SILESIA: MONIKA MUSIAL, STANISLAW KUCHARSKI
     FACULTES UNIVERSITAIRES NOTRE-DAME DE LA PAIX:
          OLIVIER QUINET, BENOIT CHAMPAGNE
     UNIVERSITY OF CALIFORNIA - SANTA BARBARA: BERNARD KIRTMAN
     INSTITUTE FOR MOLECULAR SCIENCE:
          KAZUYA ISHIMURA, MICHIO KATOUDA, AND SHIGERU NAGASE
     UNIVERSITY OF NOTRE DAME: ANNA POMOGAEVA, DAN CHIPMAN
     KYUSHU UNIVERSITY:
          HARUYUKI NAKANO,
          FENG LONG GU, JACEK KORCHOWIEC, MARCIN MAKOWSKI, AND YURIKO AOKI,
          HIROTOSHI MORI AND EISAKU MIYOSHI
     PENNSYLVANIA STATE UNIVERSITY:
          TZVETELIN IORDANOV, CHET SWALINA, JONATHAN SKONE,
          SHARON HAMMES-SCHIFFER
     WASEDA UNIVERSITY:
          MASATO KOBAYASHI, TOMOKO AKAMA, TSUGUKI TOUMA,
          TAKESHI YOSHIKAWA, YASUHIRO IKABATA, JUNJI SEINO,
          YUYA NAKAJIMA, HIROMI NAKAI
     NANJING UNIVERSITY: SHUHUA LI
     UNIVERSITY OF NEBRASKA:
          PEIFENG SU, DEJUN SI, NANDUN THELLAMUREGE, YALI WANG, HUI LI
     UNIVERSITY OF ZURICH: ROBERTO PEVERATI, KIM BALDRIDGE
     N. COPERNICUS UNIVERSITY AND JACKSON STATE UNIVERSITY:
          MARIA BARYSZ
     UNIVERSITY OF COPENHAGEN: Jimmy Kromann, CASPER STEINMANN
     TOKYO INSTITUTE OF TECHNOLOGY: HIROYA NAKATA
     NAGOYA UNIVERSITY: YOSHIO NISHIMOTO, STEPHAN IRLE
     MOSCOW STATE UNIVERSITY: VLADIMIR MIRONOV

 EXECUTION OF GAMESS BEGUN Thu Jul 26 14:26:12 2018

            ECHO OF THE FIRST FEW INPUT CARDS -
 INPUT CARD>!   File created by the GAMESS Input Deck Generator Plugin for Avogadro         
 INPUT CARD> $BASIS GBASIS=N31 NGAUSS=6 NDFUNC=1 NPFUNC=1 $END                              
 INPUT CARD> $CONTRL SCFTYP=MCSCF RUNTYP=ENERGY CITYP=GENCI $END                            
 INPUT CARD> $CONTRL COORD=ZMT UNITS=BOHR NPRINT=3 $END                                     
 INPUT CARD> $DET NCORE=0 NACT=2 NELS=2 NSTATE=4 $END                                       
 INPUT CARD> $CIGEN NCORE=0 NACT=2 NELS=2 NSTATE=4 $END                                     
 INPUT CARD> $GUESS GUESS=MOREAD NORB=10 $END                                               
 INPUT CARD> $GCILST                                                                        
 INPUT CARD>3                                                                               
 INPUT CARD>2 0                                                                             
 INPUT CARD>1 1                                                                             
 INPUT CARD>0 2                                                                             
 INPUT CARD> $END                                                                           
 INPUT CARD> $VEC                                                                           
 INPUT CARD> 1  1 2.19960982E-01 4.80716558E-01-0.00000000E+00-0.00000000E+00 6.44671152E-03
 INPUT CARD> 1  2 2.19960982E-01 4.80716558E-01-0.00000000E+00-0.00000000E+00-6.44671152E-03
 INPUT CARD> 2  1-2.34254865E-01-6.18413612E-01-0.00000000E+00-0.00000000E+00 9.61249610E-03
 INPUT CARD> 2  2 2.34254865E-01 6.18413612E-01-0.00000000E+00-0.00000000E+00 9.61249610E-03
 INPUT CARD> 3  1 9.03370282E-01-6.69333877E-01 0.00000000E+00 0.00000000E+00-2.96884061E-02
 INPUT CARD> 3  2 9.03370282E-01-6.69333877E-01 0.00000000E+00 0.00000000E+00 2.96884061E-02
 INPUT CARD> 4  1 9.32353590E-01-9.39072164E-01-0.00000000E+00-0.00000000E+00 4.17162037E-02
 INPUT CARD> 4  2-9.32353590E-01 9.39072164E-01-0.00000000E+00-0.00000000E+00 4.17162037E-02
 INPUT CARD> 5  1-7.54062558E-02 8.96454821E-02-0.00000000E+00-0.00000000E+00-7.07258689E-01
 INPUT CARD> 5  2-7.54062558E-02 8.96454821E-02-0.00000000E+00-0.00000000E+00 7.07258689E-01
 INPUT CARD> 6  1 0.00000000E+00 0.00000000E+00-1.33222296E-01 6.94389275E-01 0.00000000E+00
 INPUT CARD> 6  2 0.00000000E+00 0.00000000E+00-1.33222296E-01 6.94389275E-01 0.00000000E+00
 INPUT CARD> 7  1 0.00000000E+00 0.00000000E+00 6.94389275E-01 1.33222296E-01 0.00000000E+00
 INPUT CARD> 7  2 0.00000000E+00 0.00000000E+00 6.94389275E-01 1.33222296E-01 0.00000000E+00
 INPUT CARD> 8  1-0.00000000E+00-0.00000000E+00-6.94709896E-01-1.32111841E-01-0.00000000E+00
 INPUT CARD> 8  2-0.00000000E+00-0.00000000E+00 6.94709896E-01 1.32111841E-01-0.00000000E+00
 INPUT CARD> 9  1 0.00000000E+00 0.00000000E+00 1.32111841E-01-6.94709896E-01 0.00000000E+00
 INPUT CARD> 9  2 0.00000000E+00 0.00000000E+00-1.32111841E-01 6.94709896E-01 0.00000000E+00
 INPUT CARD>10  1-1.12088674E-01 1.72386849E-01-0.00000000E+00-0.00000000E+00 7.09959364E-01
 INPUT CARD>10  2 1.12088674E-01-1.72386849E-01-0.00000000E+00-0.00000000E+00 7.09959364E-01
 INPUT CARD> $END                                                                           
 INPUT CARD> $DATA                                                                          
 INPUT CARD>Title                                                                           
 INPUT CARD>C1                                                                              
 INPUT CARD>H                                                                               
 INPUT CARD>H 1 4.0                                                                         
 INPUT CARD> $END                                                                           
    1000000 WORDS OF MEMORY AVAILABLE

     BASIS OPTIONS
     -------------
     GBASIS=N31          IGAUSS=       6      POLAR=POPN31  
     NDFUNC=       1     NFFUNC=       0     DIFFSP=       F
     NPFUNC=       1      DIFFS=       F     BASNAM=        


     RUN TITLE
     ---------
 Title                                                                           

 THE POINT GROUP OF THE MOLECULE IS C1      
 THE ORDER OF THE PRINCIPAL AXIS IS     0

 YOUR FULLY SUBSTITUTED Z-MATRIX IS
 H   
 H      1   2.1167090

 THE MOMENTS OF INERTIA ARE (AMU-ANGSTROM**2)
 IXX=     2.258   IYY=     2.258   IZZ=     0.000

 ATOM      ATOMIC                      COORDINATES (BOHR)
           CHARGE         X                   Y                   Z
 H           1.0     0.0000000000        0.0000000000       -2.0000000000
 H           1.0     0.0000000000        0.0000000000        2.0000000000

          INTERNUCLEAR DISTANCES (ANGS.)
          ------------------------------

                1 H          2 H     

   1 H       0.0000000    2.1167090 *
   2 H       2.1167090 *  0.0000000  

  * ... LESS THAN  3.000


     ATOMIC BASIS SET
     ----------------
 THE CONTRACTED PRIMITIVE FUNCTIONS HAVE BEEN UNNORMALIZED
 THE CONTRACTED BASIS FUNCTIONS ARE NOW NORMALIZED TO UNITY

  SHELL TYPE  PRIMITIVE        EXPONENT          CONTRACTION COEFFICIENT(S)

 H         

      1   S       1            18.7311370    0.033494604338
      1   S       2             2.8253944    0.234726953484
      1   S       3             0.6401217    0.813757326146

      2   S       4             0.1612778    1.000000000000

      3   P       5             1.1000000    1.000000000000

 H         

      4   S       6            18.7311370    0.033494604338
      4   S       7             2.8253944    0.234726953484
      4   S       8             0.6401217    0.813757326146

      5   S       9             0.1612778    1.000000000000

      6   P      10             1.1000000    1.000000000000

 TOTAL NUMBER OF BASIS SET SHELLS             =    6
 NUMBER OF CARTESIAN GAUSSIAN BASIS FUNCTIONS =   10
 NUMBER OF ELECTRONS                          =    2
 CHARGE OF MOLECULE                           =    0
 SPIN MULTIPLICITY                            =    1
 NUMBER OF OCCUPIED ORBITALS (ALPHA)          =    1
 NUMBER OF OCCUPIED ORBITALS (BETA )          =    1
 TOTAL NUMBER OF ATOMS                        =    2
 THE NUCLEAR REPULSION ENERGY IS        0.2500000000

 THIS MOLECULE IS RECOGNIZED AS BEING LINEAR,
 ORBITAL LZ DEGENERACY TOLERANCE ETOLLZ= 1.00E-06

     $CONTRL OPTIONS
     ---------------
 SCFTYP=MCSCF        RUNTYP=ENERGY       EXETYP=RUN     
 MPLEVL=       0     CITYP =GENCI        CCTYP =NONE         VBTYP =NONE    
 DFTTYP=NONE         TDDFT =NONE    
 MULT  =       1     ICHARG=       0     NZVAR =       0     COORD =ZMT     
 PP    =NONE         RELWFN=NONE         LOCAL =NONE         NUMGRD=       F
 ISPHER=      -1     NOSYM =       0     MAXIT =      30     UNITS =BOHR    
 PLTORB=       F     MOLPLT=       F     AIMPAC=       F     FRIEND=        
 NPRINT=       3     IREST =       0     GEOM  =INPUT   
 NORMF =       0     NORMP =       0     ITOL  =      20     ICUT  =       9
 INTTYP=BEST         GRDTYP=BEST         QMTTOL= 1.0E-06

     $SYSTEM OPTIONS
     ---------------
  REPLICATED MEMORY=     1000000 WORDS (ON EVERY NODE).
 DISTRIBUTED MEMDDI=           0 MILLION WORDS IN AGGREGATE,
 MEMDDI DISTRIBUTED OVER   1 PROCESSORS IS           0 WORDS/PROCESSOR.
 TOTAL MEMORY REQUESTED ON EACH PROCESSOR=     1000000 WORDS.
 TIMLIM=      525600.00 MINUTES, OR     365.0 DAYS.
 PARALL= F  BALTYP=  DLB     KDIAG=    0  COREFL= F
 MXSEQ2=     300 MXSEQ3=     150  mem10=         0

          ----------------
          PROPERTIES INPUT
          ----------------

     MOMENTS            FIELD           POTENTIAL          DENSITY
 IEMOM =       1   IEFLD =       0   IEPOT =       0   IEDEN =       0
 WHERE =COMASS     WHERE =NUCLEI     WHERE =NUCLEI     WHERE =NUCLEI  
 OUTPUT=BOTH       OUTPUT=BOTH       OUTPUT=BOTH       OUTPUT=BOTH    
 IEMINT=       0   IEFINT=       0                     IEDINT=       0
                                                       MORB  =       0

     -------------------------------
     INTEGRAL TRANSFORMATION OPTIONS
     -------------------------------
     NWORD  =            0
     CUTOFF = 1.0E-09     MPTRAN =       0
     DIRTRF =       F     AOINTS =DUP     

          ----------------------
          MCSCF INPUT PARAMETERS
          ----------------------
 CONVERGER SELECTION: FOCAS = F  SOSCF = T  FULLNR = F  QUD = F  JACOBI = F
 SECULAR EQUATION METHOD CISTEP = ALDET   
 --- GENERAL INPUT OPTIONS:
 MAXIT =      60  MICIT =       5  ACURCY= 1.000E-06
 DAMP  =   0.000  CANONC=       T  ENGTOL= 1.000E-10
 EKT   =       F  NPUNCH=       2  NWORD =         0
 REGENERATE CI AFTER CONVERGENCE = NONE    
 DIABATIZATION AFTER CONVERGENCE =        F
 --- INPUT FOR SOSCF CONVERGER:
 FORS  =       T  NOFO  =       1

          ----------------------
          INTEGRAL INPUT OPTIONS
          ----------------------
 NOPK  =       1 NORDER=       0 SCHWRZ=       F

   --- ENCODED Z MATRIX ---
 COORD  TYPE   I   J   K   L   M   N
    1      1    2   1

 THE DETERMINANT OF THE G MATRIX IS 10**(     0)

     ------------------------------------------
     THE POINT GROUP IS C1 , NAXIS= 0, ORDER= 1
     ------------------------------------------

     DIMENSIONS OF THE SYMMETRY SUBSPACES ARE
 A   =   10

 ..... DONE SETTING UP THE RUN .....
 STEP CPU TIME =     0.00 TOTAL CPU TIME =          0.0 (      0.0 MIN)
 TOTAL WALL CLOCK TIME=          0.0 SECONDS, CPU UTILIZATION IS     0.00%

          ********************
          1 ELECTRON INTEGRALS
          ********************
 OVERLAP MATRIX

                      1          2          3          4          5

    1  H  1  S    1.000000
    2  H  1  S    0.658292   1.000000
    3  H  1  X    0.000000   0.000000   1.000000
    4  H  1  Y    0.000000   0.000000   0.000000   1.000000
    5  H  1  Z    0.000000   0.000000   0.000000   0.000000   1.000000
    6  H  2  S    0.004016   0.080803   0.000000   0.000000   0.003673
    7  H  2  S    0.080803   0.275210   0.000000   0.000000   0.061692
    8  H  2  X    0.000000   0.000000   0.000151   0.000000   0.000000
    9  H  2  Y    0.000000   0.000000   0.000000   0.000151   0.000000
   10  H  2  Z   -0.003673  -0.061692   0.000000   0.000000  -0.002502

                      6          7          8          9         10

    6  H  2  S    1.000000
    7  H  2  S    0.658292   1.000000
    8  H  2  X    0.000000   0.000000   1.000000
    9  H  2  Y    0.000000   0.000000   0.000000   1.000000
   10  H  2  Z   -0.000000   0.000000   0.000000   0.000000   1.000000
 BARE NUCLEUS HAMILTONIAN INTEGRALS (H=T+V)

                      1          2          3          4          5

    1  H  1  S   -0.507552
    2  H  1  S   -0.647149  -0.648606
    3  H  1  X    0.000000   0.000000   1.387780
    4  H  1  Y    0.000000   0.000000   0.000000   1.387780
    5  H  1  Z   -0.032405  -0.028367   0.000000   0.000000   1.377127
    6  H  2  S   -0.013660  -0.114084   0.000000   0.000000  -0.015599
    7  H  2  S   -0.114084  -0.236123   0.000000   0.000000  -0.066192
    8  H  2  X    0.000000   0.000000  -0.001187   0.000000   0.000000
    9  H  2  Y    0.000000   0.000000   0.000000  -0.001187   0.000000
   10  H  2  Z    0.015599   0.066192   0.000000   0.000000   0.016907

                      6          7          8          9         10

    6  H  2  S   -0.507552
    7  H  2  S   -0.647149  -0.648606
    8  H  2  X    0.000000   0.000000   1.387780
    9  H  2  Y    0.000000   0.000000   0.000000   1.387780
   10  H  2  Z    0.032405   0.028367   0.000000   0.000000   1.377127
 KINETIC ENERGY INTEGRALS

                      1          2          3          4          5

    1  H  1  S    1.395678
    2  H  1  S    0.259735   0.241917
    3  H  1  X    0.000000   0.000000   2.750000
    4  H  1  Y    0.000000   0.000000   0.000000   2.750000
    5  H  1  Z    0.000000   0.000000   0.000000   0.000000   2.750000
    6  H  2  S   -0.009611  -0.012607   0.000000   0.000000  -0.011864
    7  H  2  S   -0.012607   0.009311   0.000000   0.000000   0.004330
    8  H  2  X    0.000000   0.000000  -0.001045   0.000000   0.000000
    9  H  2  Y    0.000000   0.000000   0.000000  -0.001045   0.000000
   10  H  2  Z    0.011864  -0.004330   0.000000   0.000000   0.014422

                      6          7          8          9         10

    6  H  2  S    1.395678
    7  H  2  S    0.259735   0.241917
    8  H  2  X    0.000000   0.000000   2.750000
    9  H  2  Y    0.000000   0.000000   0.000000   2.750000
   10  H  2  Z   -0.000000   0.000000   0.000000   0.000000   2.750000
 Z-ANGULAR MOMENTUM INTEGRALS

                      1          2          3          4          5

    1  H  1  S    0.000000
    2  H  1  S    0.000000   0.000000
    3  H  1  X    0.000000   0.000000   0.000000
    4  H  1  Y    0.000000   0.000000  -1.000000   0.000000
    5  H  1  Z    0.000000   0.000000   0.000000   0.000000   0.000000
    6  H  2  S    0.000000   0.000000   0.000000   0.000000   0.000000
    7  H  2  S    0.000000   0.000000   0.000000   0.000000   0.000000
    8  H  2  X    0.000000   0.000000   0.000000   0.000151   0.000000
    9  H  2  Y    0.000000   0.000000  -0.000151   0.000000   0.000000
   10  H  2  Z    0.000000   0.000000   0.000000   0.000000   0.000000

                      6          7          8          9         10

    6  H  2  S    0.000000
    7  H  2  S    0.000000   0.000000
    8  H  2  X    0.000000   0.000000   0.000000
    9  H  2  Y    0.000000   0.000000  -1.000000   0.000000
   10  H  2  Z    0.000000   0.000000   0.000000   0.000000   0.000000
 DIPOLE ORIGIN=   0.0000000000000000        0.0000000000000000        0.0000000000000000     
 X DIPOLE INTEGRALS

                      1          2          3          4          5

    1  H  1  S    0.000000
    2  H  1  S    0.000000   0.000000
    3  H  1  X    0.518483   0.453879   0.000000
    4  H  1  Y    0.000000   0.000000   0.000000   0.000000
    5  H  1  Z    0.000000   0.000000   0.000000   0.000000   0.000000
    6  H  2  S    0.000000   0.000000   0.000717   0.000000   0.000000
    7  H  2  S    0.000000   0.000000   0.047815   0.000000   0.000000
    8  H  2  X    0.000717   0.047815   0.000000   0.000000   0.000301
    9  H  2  Y    0.000000   0.000000   0.000000   0.000000   0.000000
   10  H  2  Z    0.000000   0.000000  -0.000301   0.000000   0.000000

                      6          7          8          9         10

    6  H  2  S    0.000000
    7  H  2  S    0.000000   0.000000
    8  H  2  X    0.518483   0.453879   0.000000
    9  H  2  Y    0.000000   0.000000   0.000000   0.000000
   10  H  2  Z    0.000000   0.000000   0.000000   0.000000   0.000000
 Y DIPOLE INTEGRALS

                      1          2          3          4          5

    1  H  1  S    0.000000
    2  H  1  S    0.000000   0.000000
    3  H  1  X    0.000000   0.000000   0.000000
    4  H  1  Y    0.518483   0.453879   0.000000   0.000000
    5  H  1  Z    0.000000   0.000000   0.000000   0.000000   0.000000
    6  H  2  S    0.000000   0.000000   0.000000   0.000717   0.000000
    7  H  2  S    0.000000   0.000000   0.000000   0.047815   0.000000
    8  H  2  X    0.000000   0.000000   0.000000   0.000000   0.000000
    9  H  2  Y    0.000717   0.047815   0.000000   0.000000   0.000301
   10  H  2  Z    0.000000   0.000000   0.000000  -0.000301   0.000000

                      6          7          8          9         10

    6  H  2  S    0.000000
    7  H  2  S    0.000000   0.000000
    8  H  2  X    0.000000   0.000000   0.000000
    9  H  2  Y    0.518483   0.453879   0.000000   0.000000
   10  H  2  Z    0.000000   0.000000   0.000000   0.000000   0.000000
 Z DIPOLE INTEGRALS

                      1          2          3          4          5

    1  H  1  S   -2.000000
    2  H  1  S   -1.316584  -2.000000
    3  H  1  X    0.000000   0.000000  -2.000000
    4  H  1  Y    0.000000   0.000000   0.000000  -2.000000
    5  H  1  Z    0.518483   0.453879   0.000000   0.000000  -2.000000
    6  H  2  S   -0.000000   0.100378   0.000000   0.000000  -0.001219
    7  H  2  S   -0.100378   0.000000   0.000000   0.000000  -0.044015
    8  H  2  X    0.000000   0.000000   0.000000   0.000000   0.000000
    9  H  2  Y    0.000000   0.000000   0.000000   0.000000   0.000000
   10  H  2  Z   -0.001219  -0.044015   0.000000   0.000000  -0.000000

                      6          7          8          9         10

    6  H  2  S    2.000000
    7  H  2  S    1.316584   2.000000
    8  H  2  X    0.000000   0.000000   2.000000
    9  H  2  Y    0.000000   0.000000   0.000000   2.000000
   10  H  2  Z    0.518483   0.453879   0.000000   0.000000   2.000000
 TIME TO DO   DIPOLE INTEGRALS=      0.00
 ...... END OF ONE-ELECTRON INTEGRALS ......
 STEP CPU TIME =     0.00 TOTAL CPU TIME =          0.0 (      0.0 MIN)
 TOTAL WALL CLOCK TIME=          0.0 SECONDS, CPU UTILIZATION IS     0.00%

          -------------
          GUESS OPTIONS
          -------------
          GUESS =MOREAD            NORB  =      10          NORDER=       0
          MIX   =       F          PRTMO =       F          PUNMO =       F
          TOLZ  = 1.0E-08          TOLE  = 1.0E-05
          SYMDEN=       F          PURIFY=       F

 INITIAL GUESS ORBITALS GENERATED BY MOREAD   ROUTINE.

 SYMMETRIES FOR INITIAL GUESS ORBITALS FOLLOW.   BOTH SET(S).
     1 ORBITALS ARE OCCUPIED (    0 CORE ORBITALS).
     1=A        2=A        3=A        4=A        5=A        6=A        7=A   
     8=A        9=A       10=A   
 ...... END OF INITIAL ORBITAL SELECTION ......
 STEP CPU TIME =     0.01 TOTAL CPU TIME =          0.0 (      0.0 MIN)
 TOTAL WALL CLOCK TIME=          0.0 SECONDS, CPU UTILIZATION IS   100.00%

                    ----------------------
                    AO INTEGRAL TECHNOLOGY
                    ----------------------
     S,P,L SHELL ROTATED AXIS INTEGRALS, REPROGRAMMED BY
        KAZUYA ISHIMURA (IMS) AND JOSE SIERRA (SYNSTAR).
     S,P,D,L SHELL ROTATED AXIS INTEGRALS PROGRAMMED BY
        KAZUYA ISHIMURA (INSTITUTE FOR MOLECULAR SCIENCE).
     S,P,D,F,G SHELL TO TOTAL QUARTET ANGULAR MOMENTUM SUM 5,
        ERIC PROGRAM BY GRAHAM FLETCHER (ELORET AND NASA ADVANCED
        SUPERCOMPUTING DIVISION, AMES RESEARCH CENTER).
     S,P,D,F,G,L SHELL GENERAL RYS QUADRATURE PROGRAMMED BY
        MICHEL DUPUIS (PACIFIC NORTHWEST NATIONAL LABORATORY).

          --------------------
          2 ELECTRON INTEGRALS
          --------------------

 THE -PK- OPTION IS OFF, THE INTEGRALS ARE NOT IN SUPERMATRIX FORM.
 STORING   15000 INTEGRALS/RECORD ON DISK, USING 12 BYTES/INTEGRAL.
 TWO ELECTRON INTEGRAL EVALUATION REQUIRES   89377 WORDS OF MEMORY.
 II,JST,KST,LST =  1  1  1  1 NREC =         1 INTLOC =    1
 II,JST,KST,LST =  2  1  1  1 NREC =         1 INTLOC =    2
 II,JST,KST,LST =  3  1  1  1 NREC =         1 INTLOC =    7
 II,JST,KST,LST =  4  1  1  1 NREC =         1 INTLOC =   34
 II,JST,KST,LST =  5  1  1  1 NREC =         1 INTLOC =   84
 II,JST,KST,LST =  6  1  1  1 NREC =         1 INTLOC =  169
 TOTAL NUMBER OF NONZERO TWO-ELECTRON INTEGRALS =                 512
          1 INTEGRAL RECORDS WERE STORED ON DISK FILE  8.
  ...... END OF TWO-ELECTRON INTEGRALS .....
 STEP CPU TIME =     0.01 TOTAL CPU TIME =          0.0 (      0.0 MIN)
 TOTAL WALL CLOCK TIME=          0.0 SECONDS, CPU UTILIZATION IS   100.00%

          -----------------
          MCSCF CALCULATION
          -----------------

 ----- NUCLEAR ENERGY ----- =         0.2500000000

     --------------------------------------------------
          AMES LABORATORY DETERMINANTAL FULL CI
     PROGRAM WRITTEN BY JOE IVANIC AND KLAUS RUEDENBERG
     --------------------------------------------------

 THE POINT GROUP                  =   C1      
 THE STATE SYMMETRY               =   A       
 NUMBER OF CORE ORBITALS          =    0
 NUMBER OF ACTIVE ORBITALS        =    2
 NUMBER OF ALPHA ELECTRONS        =    1 (   1 ACTIVE)
 NUMBER OF BETA ELECTRONS         =    1 (   1 ACTIVE)
 NUMBER OF OCCUPIED ORBITALS      =    2
 NUMBER OF CI STATES REQUESTED    =    4
 NUMBER OF CI STARTING VECTORS    =    4
 MAX. NO. OF CI EXPANSION VECTORS =   10
 SIZE OF INITIAL CI GUESS MATRIX  =  300
 MAX. NO. OF CI ITERS/STATE       =  100
 CI DIAGONALIZATION CRITERION     = 1.00E-06
 PURE SPIN STATE AVERAGED 1E- AND 2E- DENSITY MATRIX OPTION=.T.
 STATE=   1 DM2 WEIGHT=   1.00000

 CORRELATION ENERGY ANALYSIS      =    F

 SYMMETRIES FOR THE   0 CORE,   2 ACTIVE ARE

   ACTIVE= A     A   
 OPENING FILE DAFL30 WITH      81 LOGICAL RECORDS OF     361 WORDS
 WITH A MAXIMUM OF          81 PHYSICAL RECORDS OF    2048 WORDS

          ------------------------------
          CASSCF INTEGRAL TRANSFORMATION
          ------------------------------
 AO INTEGRALS WILL BE READ IN FROM DISK...

 NUMBER OF CORE MOLECULAR ORBITALS     =     0
 NUMBER OF OCCUPIED MOLECULAR ORBITALS =     2
 TOTAL NUMBER OF MOLECULAR ORBITALS    =    10
 TOTAL NUMBER OF ATOMIC ORBITALS       =    10

 ----- CHOOSING THREE STEPS TRANSFORMATION -----
 NUMBER OF WORDS USED      =      61541
 NUMBER OF WORDS AVAILABLE =    1000000
 NUMBER OF PASSES          =          1

 ----- NUCLEAR REPULSION ENERGY =      0.25000000
 ----- FROZEN CORE ENERGY       =      0.00000000

 ... SYMMETRY ...           CPU =    0.00
 ... (PQ|RS) -> (PQ|KL) ... CPU =    0.00
 ... (PQ|KL) -> (IJ|KL) ... CPU =    0.00

 NUMBER OF (PQ|KL) INTEGRALS WRITTEN         76
 NUMBER OF (IJ|KL) INTEGRALS WRITTEN          4
 ..... END OF CAS INTEGRAL TRANSFORMATION .....
 STEP CPU TIME =     0.00 TOTAL CPU TIME =          0.0 (      0.0 MIN)
 TOTAL WALL CLOCK TIME=          0.0 SECONDS, CPU UTILIZATION IS   100.00%

     --------------------------------------------------
          AMES LABORATORY DETERMINANTAL FULL CI
     PROGRAM WRITTEN BY JOE IVANIC AND KLAUS RUEDENBERG
     --------------------------------------------------

 THE NUMBER OF DETERMINANTS HAVING SPACE SYMMETRY A  
 IN POINT GROUP C1   WITH SZ=  0.0 IS              4
 WHICH INCLUDES              3 CSFS WITH S=  0.0
 WHICH INCLUDES              1 CSFS WITH S=  1.0
 THE DETERMINANT FULL CI REQUIRES          169647 WORDS
 SMALL CI MATRIX, JUST USING INCORE DIAGONALIZATION...

 CI EIGENVECTORS WILL BE LABELED IN GROUP=C1      
 PRINTING ALL NON-ZERO CI COEFFICIENTS

 STATE   1  ENERGY=        -0.9959354689  S=  0.00  SZ=  0.00  SPACE SYM=A   

 ALP| BET| CI COEFFICIENT
----|----|---------------
 10 | 10 |                                                                                                       0.8700330877
 01 | 01 |                                                                                                      -0.4929933330

 STATE   2  ENERGY=        -0.9744203874  S=  1.00  SZ=  0.00  SPACE SYM=A   

 ALP| BET| CI COEFFICIENT
----|----|---------------
 01 | 10 |                                                                                                       0.7071067812
 10 | 01 |                                                                                                      -0.7071067812

 STATE   3  ENERGY=        -0.6391219786  S=  0.00  SZ=  0.00  SPACE SYM=A   

 ALP| BET| CI COEFFICIENT
----|----|---------------
 10 | 01 |                                                                                                       0.7071067812
 01 | 10 |                                                                                                       0.7071067812

 STATE   4  ENERGY=        -0.6050723606  S=  0.00  SZ=  0.00  SPACE SYM=A   

 ALP| BET| CI COEFFICIENT
----|----|---------------
 01 | 01 |                                                                                                       0.8700330877
 10 | 10 |                                                                                                       0.4929933330
 ..... DONE WITH DETERMINANT CI COMPUTATION .....
 STEP CPU TIME =     0.00 TOTAL CPU TIME =          0.0 (      0.0 MIN)
 TOTAL WALL CLOCK TIME=          0.0 SECONDS, CPU UTILIZATION IS   100.00%

     --------------------------------------------------
      ONE AND TWO PARTICLE DENSITY MATRIX COMPUTATION
     PROGRAM WRITTEN BY JOE IVANIC AND KLAUS RUEDENBERG
     --------------------------------------------------

      30096 WORDS WILL BE USED TO FORM THE DENSITIES
 THE DENSITIES ARE STATE AVERAGED OVER   1 ROOT(S)
 STATE=   1   ENERGY=       -0.9959354689   WEIGHT= 1.00000   S=  0.00
 SIEVING THE A    SYMMETRY NONZERO DENSITY ELEMENTS IN GROUP C1      
          3 NONZERO DM2 ELEMENTS WRITTEN IN       1 RECORDS TO FILE 15
 ..... DONE WITH 1 AND 2 PARTICLE DENSITY MATRIX .....
 STEP CPU TIME =     0.00 TOTAL CPU TIME =          0.0 (      0.0 MIN)
 TOTAL WALL CLOCK TIME=          0.0 SECONDS, CPU UTILIZATION IS   100.00%

          --------------------------------------
          APPROXIMATE SECOND-ORDER MCSCF PROGRAM
          --------------------------------------
          PROGRAM WRITTEN BY G.CHABAN, A.MARQUEZ, AND M.DUPUIS

  NUMBER OF WORDS NEEDED     =      30917
  NUMBER AVAILABLE           =    1000000

 ----- GAMMA(IJKL)*(PQ|KL) PRODUCTS ----- CPU TIME =      0.000
 ----- ORBITAL SYMMETRY             ----- CPU TIME =      0.000
 ----- FOCK OPERATORS CONSTRUCTION  ----- CPU TIME =      0.000
     MICIT =   1 ASYMM =    0.076660 ROTMAX =    0.036948
 ----- EFFECTIVE FOCK + ROTATE ORBS ----- CPU TIME =      0.000
     MICIT =   2 ASYMM =    0.049057 ROTMAX =    0.011301
     MICIT =   3 ASYMM =    0.042928 ROTMAX =    0.012377
     MICIT =   4 ASYMM =    0.036060 ROTMAX =    0.010665
     MICIT =   5 ASYMM =    0.030106 ROTMAX =    0.008908
 ..... DONE WITH CASSCF ORBITAL UPDATE .....
 STEP CPU TIME =     0.00 TOTAL CPU TIME =          0.0 (      0.0 MIN)
 TOTAL WALL CLOCK TIME=          0.0 SECONDS, CPU UTILIZATION IS   100.00%

 ITER     TOTAL ENERGY      DEL(E)  LAGRANGIAN ASYMMETRY   SQCDF  MICIT   DAMP
   1       -0.995935469 -0.995935469  0.076660    4    2 3.695E-02  5   0.0000
       ----------START APPROXIMATE SECOND ORDER MCSCF----------
   2       -1.007846584 -0.011911115  0.025677    3    1 1.007E-03  1   0.0000
   3       -1.009212077 -0.001365493  0.011225    3    1 2.139E-04  1   0.0000
   4       -1.009384608 -0.000172531  0.000262    3    1 4.808E-08  1   0.0000
   5       -1.009384688 -0.000000080  0.000032    3    1 1.195E-09  1   0.0000
   6       -1.009384690 -0.000000001  0.000005    5    1 3.812E-12  1   0.0000
   7       -1.009384690 -0.000000000  0.000001    5    1 1.885E-13  1   0.0000

          --------------------
          LAGRANGIAN CONVERGED
          --------------------

 FINAL MCSCF ENERGY IS       -1.0093846896 AFTER   7 ITERATIONS

 -MCCI- BASED ON OPTIMIZED ORBITALS
 ----------------------------------

 PLEASE NOTE: IF THE ACTIVE ORBITALS ARE CANONICALIZED BELOW,
 THE FOLLOWING CI EXPANSION COEFFICIENTS AND THE DENSITY DO NOT
 CORRESPOND TO THE PRINTED ORBITALS.  THE PRINTED EXPANSIONS MATCH
 THE ORBITALS USED DURING THE LAST ITERATION.  IF YOU WISH TO SEE
 CI EXPANSIONS BASED ON THE CANONICAL (OR NATURAL) ORBITALS, YOU
 MUST RUN A CI CALCULATION WITH THAT ORBITAL CHOICE READ IN $VEC.

 CI EIGENVECTORS WILL BE LABELED IN GROUP=C1      
 PRINTING ALL NON-ZERO CI COEFFICIENTS

 STATE   1  ENERGY=        -1.0093846896  S=  0.00  SZ=  0.00  SPACE SYM=A   

 ALP| BET| CI COEFFICIENT
----|----|---------------
 10 | 10 |                                                                                                       0.8592684563
 01 | 01 |                                                                                                      -0.5115248967

 STATE   2  ENERGY=        -0.9876209070  S=  1.00  SZ=  0.00  SPACE SYM=A   

 ALP| BET| CI COEFFICIENT
----|----|---------------
 10 | 01 |                                                                                                       0.7071067812
 01 | 10 |                                                                                                      -0.7071067812

 STATE   3  ENERGY=        -0.5953897210  S=  0.00  SZ=  0.00  SPACE SYM=A   

 ALP| BET| CI COEFFICIENT
----|----|---------------
 10 | 01 |                                                                                                       0.7071067812
 01 | 10 |                                                                                                       0.7071067812

 STATE   4  ENERGY=        -0.5631981341  S=  0.00  SZ=  0.00  SPACE SYM=A   

 ALP| BET| CI COEFFICIENT
----|----|---------------
 01 | 01 |                                                                                                       0.8592684563
 10 | 10 |                                                                                                       0.5115248967

 DENSITY MATRIX OVER ACTIVE MO-S

             1           2

    1    1.4766846
    2    0.0000000   0.5233154

 FORMING THE "STANDARD FOCK OPERATOR" USING INTEGRALS FROM DISK...
     0 FILLED,    2 ACTIVE, AND    8 VIRTUAL ORBITALS  WILL BE CANONICALIZED

          ----------------------
          MCSCF NATURAL ORBITALS
          ----------------------

                      1          2
                    1.4767     0.5233
                     A          A   
    1  H  1  S    0.273156  -0.344765
    2  H  1  S    0.440314  -0.501260
    3  H  1  X   -0.000000   0.000000
    4  H  1  Y   -0.000000   0.000000
    5  H  1  Z    0.001133  -0.001553
    6  H  2  S    0.273156   0.344765
    7  H  2  S    0.440314   0.501260
    8  H  2  X   -0.000000   0.000000
    9  H  2  Y   -0.000000   0.000000
   10  H  2  Z   -0.001133  -0.001553

 LZ VALUE ANALYSIS FOR THE MOS
 ----------------------------------------
 MO     1 (    1) HAS LZ(WEIGHT)= 0.00(100.0%) 
 MO     2 (    2) HAS LZ(WEIGHT)= 0.00(100.0%) 
 MO     3 (    3) HAS LZ(WEIGHT)= 0.00(100.0%) 
 MO     4 (    4) HAS LZ(WEIGHT)= 0.00(100.0%) 
 MO     5 (    5) HAS LZ(WEIGHT)= 0.00(100.0%) 
 MO     6 (    6) HAS LZ(WEIGHT)=-1.00( 50.0%)  1.00( 50.0%) 
 MO     7 (    6) HAS LZ(WEIGHT)=-1.00( 50.0%)  1.00( 50.0%) 
 MO     8 (    7) HAS LZ(WEIGHT)=-1.00( 50.0%)  1.00( 50.0%) 
 MO     9 (    7) HAS LZ(WEIGHT)=-1.00( 50.0%)  1.00( 50.0%) 
 MO    10 (    8) HAS LZ(WEIGHT)= 0.00(100.0%) 

          ------------------------
          MCSCF OPTIMIZED ORBITALS
          ------------------------

                      1          2          3          4          5
                   -0.2900    -0.0704     0.9967     1.0343     2.2868
                     A          A          A          A          A   
    1  H  1  S    0.273156  -0.344765   0.888833   0.896715  -0.074217
    2  H  1  S    0.440314  -0.501260  -0.697105  -1.006781   0.085448
    3  H  1  X   -0.000000  -0.000000  -0.000000  -0.000000  -0.000000
    4  H  1  Y   -0.000000  -0.000000  -0.000000  -0.000000  -0.000000
    5  H  1  Z    0.001133  -0.001553  -0.027989   0.044384  -0.707356
    6  H  2  S    0.273156   0.344765   0.888833  -0.896715  -0.074217
    7  H  2  S    0.440314   0.501260  -0.697105   1.006781   0.085448
    8  H  2  X   -0.000000  -0.000000  -0.000000  -0.000000  -0.000000
    9  H  2  Y   -0.000000  -0.000000  -0.000000  -0.000000  -0.000000
   10  H  2  Z   -0.001133  -0.001553   0.027989   0.044384   0.707356

                      6          7          8          9         10
                    2.2922     2.2922     2.2971     2.2971     2.3533
                     A          A          A          A          A   
    1  H  1  S   -0.000000   0.000000   0.000000   0.000000  -0.117306
    2  H  1  S   -0.000000   0.000000   0.000000   0.000000   0.170703
    3  H  1  X   -0.150054   0.690948  -0.694481   0.133312   0.000000
    4  H  1  Y    0.690948   0.150054  -0.133312  -0.694481   0.000000
    5  H  1  Z   -0.000000   0.000000   0.000000   0.000000   0.709861
    6  H  2  S   -0.000000   0.000000   0.000000   0.000000   0.117306
    7  H  2  S   -0.000000   0.000000   0.000000   0.000000  -0.170703
    8  H  2  X   -0.150054   0.690948   0.694481  -0.133312   0.000000
    9  H  2  Y    0.690948   0.150054   0.133312   0.694481   0.000000
   10  H  2  Z   -0.000000   0.000000   0.000000   0.000000   0.709861
 .....DONE WITH MCSCF ITERATIONS.....
 STEP CPU TIME =     0.00 TOTAL CPU TIME =          0.0 (      0.0 MIN)
 TOTAL WALL CLOCK TIME=          0.0 SECONDS, CPU UTILIZATION IS   100.00%

     ----------------------------------------------------------------
     PROPERTY VALUES FOR THE MCSCF SELF-CONSISTENT FIELD WAVEFUNCTION
     ----------------------------------------------------------------

          -----------------
          ENERGY COMPONENTS
          -----------------

         WAVEFUNCTION NORMALIZATION =       1.0000000000

                ONE ELECTRON ENERGY =      -1.5253122290
                TWO ELECTRON ENERGY =       0.2659275394
           NUCLEAR REPULSION ENERGY =       0.2500000000
                                      ------------------
                       TOTAL ENERGY =      -1.0093846896

 ELECTRON-ELECTRON POTENTIAL ENERGY =       0.2659275394
  NUCLEUS-ELECTRON POTENTIAL ENERGY =      -2.4846974659
   NUCLEUS-NUCLEUS POTENTIAL ENERGY =       0.2500000000
                                      ------------------
             TOTAL POTENTIAL ENERGY =      -1.9687699265
               TOTAL KINETIC ENERGY =       0.9593852370
                 VIRIAL RATIO (V/T) =       2.0521161372
 MEMORY ASSIGNEMENT
 I10, I20, I21, I30, I31, I40, I41, I60 =
****************************************************************
 LAST = ********

          ---------------------------------------
          MULLIKEN AND LOWDIN POPULATION ANALYSES
          ---------------------------------------
 MEMORY ASSIGNMENT
 I10, I30, I40, I50, I60, I70, I41, I51, I61, I71 =
********************************************************************************
 LAST = ********

          ----- MULLIKEN ATOMIC OVERLAP POPULATIONS -----
          (OFF-DIAGONAL ELEMENTS NEED TO BE MULTIPLIED BY 2)

                      1          2          3          4          5

    1  H  1  S    0.172384
    2  H  1  S    0.176452   0.417783
    3  H  1  X    0.000000   0.000000   0.000000
    4  H  1  Y    0.000000   0.000000   0.000000   0.000000
    5  H  1  Z    0.000000   0.000000   0.000000   0.000000   0.000003
    6  H  2  S    0.000193   0.007044   0.000000   0.000000   0.000001
    7  H  2  S    0.007044   0.042604   0.000000   0.000000   0.000020
    8  H  2  X    0.000000   0.000000   0.000000   0.000000   0.000000
    9  H  2  Y    0.000000   0.000000   0.000000   0.000000   0.000000
   10  H  2  Z    0.000001   0.000020   0.000000   0.000000   0.000000

                      6          7          8          9         10

    6  H  2  S    0.172384
    7  H  2  S    0.176452   0.417783
    8  H  2  X    0.000000   0.000000   0.000000
    9  H  2  Y    0.000000   0.000000   0.000000   0.000000
   10  H  2  Z    0.000000  -0.000000   0.000000   0.000000   0.000003

               ----- POPULATIONS IN EACH AO -----
                             MULLIKEN      LOWDIN
              1  H  1  S      0.35607     0.38393
              2  H  1  S      0.64390     0.61569
              3  H  1  X      0.00000     0.00000
              4  H  1  Y      0.00000     0.00000
              5  H  1  Z      0.00002     0.00038
              6  H  2  S      0.35607     0.38393
              7  H  2  S      0.64390     0.61569
              8  H  2  X      0.00000     0.00000
              9  H  2  Y      0.00000     0.00000
             10  H  2  Z      0.00002     0.00038

          ----- MULLIKEN ATOMIC OVERLAP POPULATIONS -----
          (OFF-DIAGONAL ELEMENTS NEED TO BE MULTIPLIED BY 2)

             1           2

    1    0.9430744
    2    0.0569256   0.9430744

          TOTAL MULLIKEN AND LOWDIN ATOMIC POPULATIONS
       ATOM         MULL.POP.                    LOW.POP.

          TOTAL MULLIKEN AND LOWDIN ATOMIC POPULATIONS
       ATOM         MULL.POP.    CHARGE          LOW.POP.     CHARGE
    1 H             1.000000                     1.000000
    1 H             1.000000   -0.000000         1.000000   -0.000000
    2 H             1.000000                     1.000000
    2 H             1.000000    0.000000         1.000000    0.000000

          ---------------------
          ELECTROSTATIC MOMENTS
          ---------------------

 POINT   1           X           Y           Z (BOHR)    CHARGE
                 0.000000    0.000000    0.000000       -0.00 (A.U.)
         DX          DY          DZ         /D/  (DEBYE)
     0.000000    0.000000    0.000000    0.000000
 ...... END OF PROPERTY EVALUATION ......
 STEP CPU TIME =     0.00 TOTAL CPU TIME =          0.0 (      0.0 MIN)
 TOTAL WALL CLOCK TIME=          0.0 SECONDS, CPU UTILIZATION IS    66.67%

 GENERAL CI OPTIONS       NRNFG   NPFLG
 INTEGRAL TRANSFORMATION    1       0
 DIAGONALIZE HAMILTONIAN    1       0
 FORM 1E- DENSITY MATRIX    1       0
 FORM 2E- DENSITY MATRIX    0       0

     --------------------------------------------------
         AMES LABORATORY DETERMINANTAL GENERAL CI
     PROGRAM WRITTEN BY JOE IVANIC AND KLAUS RUEDENBERG
     --------------------------------------------------

 THE POINT GROUP                  =   C1      
 THE STATE SYMMETRY               =   A       
 NUMBER OF CORE ORBITALS          =    0
 NUMBER OF ACTIVE ORBITALS        =    2
 NUMBER OF ALPHA ELECTRONS        =    1 (   1 ACTIVE)
 NUMBER OF BETA ELECTRONS         =    1 (   1 ACTIVE)
 NUMBER OF OCCUPIED ORBITALS      =    2
 NUMBER OF CI STATES REQUESTED    =    4
 NUMBER OF CI STARTING VECTORS    =    4
 MAX. NO. OF CI EXPANSION VECTORS =   10
 SIZE OF INITIAL CI GUESS MATRIX  =  300
 MAX. NO. OF CI ITERS/STATE       =  100
 CI DIAGONALIZATION CRITERION     = 1.00E-06

 GLIST SPECIFICATION              =   INPUT   

 CI PROPERTIES WILL BE FOUND FOR ROOT NUMBER   1
 1E- DENSITY MATRIX OPTIONS ARE 1 0 0 0

 CORRELATION ENERGY ANALYSIS      =    F

 SYMMETRIES FOR THE   0 CORE,   2 ACTIVE ARE

   ACTIVE= A     A   

     --------------------------------------------------
      READING GENERAL CI LIST FROM $GCILST GROUP 
     --------------------------------------------------

 NUMBER OF SPACE PRODUCTS TO BE READ IN =      3

 WILL CHECK THAT SPACE PRODUCTS HAVE CORRECT IRREP.

 *** NOTE THAT IRREP NUMBERS BELOW CORRESPOND
 WITH DETERMINANT CODE LABELLING

 NO OF UNIQUE SPACE PRODUCTS READ =      3

 NUMBER OF DETERMINANTS WRITTEN TO DISK =      3

 THESE WILL BE SPIN COMPLEMENTED LATER.

     --------------------------------------------
     PARTIAL TWO ELECTRON INTEGRAL TRANSFORMATION
     --------------------------------------------

 NUMBER OF CORE MOLECULAR ORBITALS     =    0
 NUMBER OF OCCUPIED MOLECULAR ORBITALS =    2
 TOTAL NUMBER OF MOLECULAR ORBITALS    =    2
 TOTAL NUMBER OF ATOMIC ORBITALS       =   10
 THRESHOLD FOR KEEPING TRANSFORMED 2E- INTEGRALS = 1.000E-09
 AO INTEGRALS WILL BE READ IN FROM DISK...

 PLAN A: REQUIREMENTS FOR FULLY IN-MEMORY TRANSFORMATION:
 # OF WORDS AVAILABLE =              1000000
 # OF WORDS NEEDED    =                61622

 CHOOSING IN MEMORY PARTIAL TRANSFORMATION...
 TOTAL NUMBER OF TRANSFORMED 2E- INTEGRALS KEPT =            4
 ... END OF INTEGRAL TRANSFORMATION ...
 STEP CPU TIME =     0.00 TOTAL CPU TIME =          0.0 (      0.0 MIN)
 TOTAL WALL CLOCK TIME=          0.0 SECONDS, CPU UTILIZATION IS    66.67%

     --------------------------------------------------
         AMES LABORATORY DETERMINANTAL GENERAL CI
     PROGRAM WRITTEN BY JOE IVANIC AND KLAUS RUEDENBERG
     --------------------------------------------------

 NUMBER OF DETERMINANTS TO BE READ IN   =               3
 MEMORY FOR DETERMINANT LIST STORAGE    =               18 WORDS
 MEMORY FOR SORTING AND FULL LISTS      =               37 WORDS
 TIME TAKEN FOR SORTING:                  0.0
 MEMORY FOR SPIN CONSISTENCY CHECK      =               41 WORDS
 TIME TAKEN FOR SPIN CHECK:               0.0

 **************************************************
 DETERMINANT LIST IS NOT SPIN CONSISTENT
 NUMBER OF EXTRA DETERIMINANTS NEEDED     =       1
 DETERMINANT LIST WILL BE AMENDED TO INCLUDE EXTRAS
 TOTAL NUMBER OF DETERMINANTS IN LIST NOW =       4
 **************************************************

 MEMORY FOR DETERMINANT LIST STORAGE    =               20 WORDS
 MEMORY FOR SORTING AND FULL LISTS      =               39 WORDS
 TIME TAKEN FOR SORTING:                  0.0
 OLD LIST HAS BEEN OVERWRITTEN WITH NEW EXPANDED LIST
 NUMBER OF FULL SPACE DETERMINANTS FOR ACTIVE SPACE =          4
 THE DETERMINANT GENERAL CI REQUIRES          169344 WORDS
 SMALL CI MATRIX, JUST USING INCORE DIAGONALIZATION

 CI EIGENVECTORS WILL BE LABELED IN GROUP=C1      
 PRINTING ALL NON-ZERO CI COEFFICIENTS

 STATE   1  ENERGY=        -1.0093846896  S=  0.00  SZ=  0.00  SPACE SYM=A   

ALPH|BETA| COEFFICIENT
----|----|------------
 10 | 10 |   0.8592685
 01 | 01 |  -0.5115248

 STATE   2  ENERGY=        -0.9876208929  S=  1.00  SZ=  0.00  SPACE SYM=A   

ALPH|BETA| COEFFICIENT
----|----|------------
 10 | 01 |   0.7071068
 01 | 10 |  -0.7071068

 STATE   3  ENERGY=        -0.5953896714  S=  0.00  SZ=  0.00  SPACE SYM=A   

ALPH|BETA| COEFFICIENT
----|----|------------
 01 | 10 |   0.7071068
 10 | 01 |   0.7071068

 STATE   4  ENERGY=        -0.5631980491  S=  0.00  SZ=  0.00  SPACE SYM=A   

ALPH|BETA| COEFFICIENT
----|----|------------
 01 | 01 |   0.8592685
 10 | 10 |   0.5115248
 ..... DONE WITH GENERAL CI COMPUTATION .....
 STEP CPU TIME =     0.00 TOTAL CPU TIME =          0.0 (      0.0 MIN)
 TOTAL WALL CLOCK TIME=          0.0 SECONDS, CPU UTILIZATION IS    66.67%

     ---------------------------
     ONE PARTICLE DENSITY MATRIX
     ---------------------------

 DENSITY MATRIX WILL BE SAVED FOR   1-TH STATE WITH S= 0.00

 CI EIGENSTATE   1 TOTAL ENERGY =       -1.0093846896

          NATURAL ORBITALS IN ATOMIC ORBITAL BASIS
          ----------------------------------------

                      1          2
                    1.4767     0.5233
                     A          A   
    1  H  1  S    0.273156  -0.344765
    2  H  1  S    0.440314  -0.501260
    3  H  1  X   -0.000000   0.000000
    4  H  1  Y   -0.000000   0.000000
    5  H  1  Z    0.001133  -0.001553
    6  H  2  S    0.273156   0.344765
    7  H  2  S    0.440314   0.501260
    8  H  2  X   -0.000000   0.000000
    9  H  2  Y   -0.000000   0.000000
   10  H  2  Z   -0.001133  -0.001553
 ..... DONE WITH ONE PARTICLE DENSITY MATRIX .....
 STEP CPU TIME =     0.00 TOTAL CPU TIME =          0.0 (      0.0 MIN)
 TOTAL WALL CLOCK TIME=          0.0 SECONDS, CPU UTILIZATION IS    66.67%

     --------------------------------------------------------
     GENCI CI PROPERTIES...FOR THE WAVEFUNCTION OF STATE    1
               USING THE EXPECTATION VALUE DENSITY
     --------------------------------------------------------

          -----------------
          ENERGY COMPONENTS
          -----------------

         WAVEFUNCTION NORMALIZATION =       1.0000000000

                ONE ELECTRON ENERGY =      -1.5253122443
                TWO ELECTRON ENERGY =       0.2659275547
           NUCLEAR REPULSION ENERGY =       0.2500000000
                                      ------------------
                       TOTAL ENERGY =      -1.0093846896

 ELECTRON-ELECTRON POTENTIAL ENERGY =       0.2659275547
  NUCLEUS-ELECTRON POTENTIAL ENERGY =      -2.4846974461
   NUCLEUS-NUCLEUS POTENTIAL ENERGY =       0.2500000000
                                      ------------------
             TOTAL POTENTIAL ENERGY =      -1.9687698914
               TOTAL KINETIC ENERGY =       0.9593852019
                 VIRIAL RATIO (V/T) =       2.0521161756
 MEMORY ASSIGNEMENT
 I10, I20, I21, I30, I31, I40, I41, I60 =
****************************************************************
 LAST = ********

          ---------------------------------------
          MULLIKEN AND LOWDIN POPULATION ANALYSES
          ---------------------------------------
 MEMORY ASSIGNMENT
 I10, I30, I40, I50, I60, I70, I41, I51, I61, I71 =
********************************************************************************
 LAST = ********

          ----- MULLIKEN ATOMIC OVERLAP POPULATIONS -----
          (OFF-DIAGONAL ELEMENTS NEED TO BE MULTIPLIED BY 2)

                      1          2          3          4          5

    1  H  1  S    0.172384
    2  H  1  S    0.176452   0.417783
    3  H  1  X    0.000000   0.000000   0.000000
    4  H  1  Y    0.000000   0.000000   0.000000   0.000000
    5  H  1  Z    0.000000   0.000000   0.000000   0.000000   0.000003
    6  H  2  S    0.000193   0.007044   0.000000   0.000000   0.000001
    7  H  2  S    0.007044   0.042604   0.000000   0.000000   0.000020
    8  H  2  X    0.000000   0.000000   0.000000   0.000000   0.000000
    9  H  2  Y    0.000000   0.000000   0.000000   0.000000   0.000000
   10  H  2  Z    0.000001   0.000020   0.000000   0.000000   0.000000

                      6          7          8          9         10

    6  H  2  S    0.172384
    7  H  2  S    0.176452   0.417783
    8  H  2  X    0.000000   0.000000   0.000000
    9  H  2  Y    0.000000   0.000000   0.000000   0.000000
   10  H  2  Z    0.000000  -0.000000   0.000000   0.000000   0.000003

               ----- POPULATIONS IN EACH AO -----
                             MULLIKEN      LOWDIN
              1  H  1  S      0.35607     0.38393
              2  H  1  S      0.64390     0.61569
              3  H  1  X      0.00000     0.00000
              4  H  1  Y      0.00000     0.00000
              5  H  1  Z      0.00002     0.00038
              6  H  2  S      0.35607     0.38393
              7  H  2  S      0.64390     0.61569
              8  H  2  X      0.00000     0.00000
              9  H  2  Y      0.00000     0.00000
             10  H  2  Z      0.00002     0.00038

          ----- MULLIKEN ATOMIC OVERLAP POPULATIONS -----
          (OFF-DIAGONAL ELEMENTS NEED TO BE MULTIPLIED BY 2)

             1           2

    1    0.9430743
    2    0.0569257   0.9430743

          TOTAL MULLIKEN AND LOWDIN ATOMIC POPULATIONS
       ATOM         MULL.POP.                    LOW.POP.

          TOTAL MULLIKEN AND LOWDIN ATOMIC POPULATIONS
       ATOM         MULL.POP.    CHARGE          LOW.POP.     CHARGE
    1 H             1.000000                     1.000000
    1 H             1.000000   -0.000000         1.000000   -0.000000
    2 H             1.000000                     1.000000
    2 H             1.000000    0.000000         1.000000    0.000000

          ---------------------
          ELECTROSTATIC MOMENTS
          ---------------------

 POINT   1           X           Y           Z (BOHR)    CHARGE
                 0.000000    0.000000    0.000000        0.00 (A.U.)
         DX          DY          DZ         /D/  (DEBYE)
     0.000000    0.000000   -0.000000    0.000000
 ...... END OF PROPERTY EVALUATION ......
 STEP CPU TIME =     0.00 TOTAL CPU TIME =          0.0 (      0.0 MIN)
 TOTAL WALL CLOCK TIME=          0.0 SECONDS, CPU UTILIZATION IS    66.67%
               580000  WORDS OF DYNAMIC MEMORY USED
 EXECUTION OF GAMESS TERMINATED NORMALLY Thu Jul 26 14:26:12 2018
 DDI: 263640 bytes (0.3 MB / 0 MWords) used by master data server.

 ----------------------------------------
 CPU timing information for all processes
 ========================================
 0: 0.23 + 0.07 = 0.31
 ----------------------------------------
 ddikick.x: exited gracefully.
----- accounting info -----
Files used on the master node labodang001 were:
-rw-rw-r-- 1 jnicolas jnicolas    3785 Jul 26 14:26 /tmp/1e.dat
-rw-rw-r-- 1 jnicolas jnicolas    2039 Jul 26 14:26 /tmp/1e.F05
-rw-rw-r-- 1 jnicolas jnicolas  180016 Jul 26 14:26 /tmp/1e.F08
-rw-rw-r-- 1 jnicolas jnicolas  180048 Jul 26 14:26 /tmp/1e.F09
-rw-rw-r-- 1 jnicolas jnicolas 2257680 Jul 26 14:26 /tmp/1e.F10
-rw-rw-r-- 1 jnicolas jnicolas     184 Jul 26 14:26 /tmp/1e.F12
-rw-rw-r-- 1 jnicolas jnicolas     880 Jul 26 14:26 /tmp/1e.F13
-rw-rw-r-- 1 jnicolas jnicolas  180048 Jul 26 14:26 /tmp/1e.F15
-rw-rw-r-- 1 jnicolas jnicolas    2040 Jul 26 14:26 /tmp/1e.F23
-rw-rw-r-- 1 jnicolas jnicolas      96 Jul 26 14:26 /tmp/1e.F37
Thu Jul 26 14:26:15 EDT 2018
0.0u 0.0s 0:03.09 1.9% 0+0k 0+16io 0pf+0w
