----- GAMESS execution script 'rungms' -----
This job is running on host labodang001
under operating system Linux at Mon Jul 23 12:32:12 EDT 2018
Available scratch disk space (Kbyte units) at beginning of the job is
Filesystem     1K-blocks     Used Available Use% Mounted on
/dev/sda1       49601260 32986768  14071800  71% /
GAMESS temporary binary files will be written to /tmp
GAMESS supplementary output files will be written to /tmp
Copying input file rhf_test.inp to your run's scratch directory...

 Distributed Data Interface kickoff program.
 Initiating 1 compute processes on 1 nodes to run the following command:
 /opt/gamess/gamess.00.x rhf_test 

          ******************************************************
          *         GAMESS VERSION = 14 FEB 2018 (R1)         *
          *             FROM IOWA STATE UNIVERSITY             *
          * M.W.SCHMIDT, K.K.BALDRIDGE, J.A.BOATZ, S.T.ELBERT, *
          *   M.S.GORDON, J.H.JENSEN, S.KOSEKI, N.MATSUNAGA,   *
          *          K.A.NGUYEN, S.J.SU, T.L.WINDUS,           *
          *       TOGETHER WITH M.DUPUIS, J.A.MONTGOMERY       *
          *         J.COMPUT.CHEM.  14, 1347-1363(1993)        *
          **************** 64 BIT LINUX VERSION ****************

  SINCE 1993, STUDENTS AND POSTDOCS WORKING AT IOWA STATE UNIVERSITY
  AND ALSO IN THEIR VARIOUS JOBS AFTER LEAVING ISU HAVE MADE IMPORTANT
  CONTRIBUTIONS TO THE CODE:
     IVANA ADAMOVIC, CHRISTINE AIKENS, YURI ALEXEEV, POOJA ARORA,
     ANDREY ASADCHEV, ROB BELL, PRADIPTA BANDYOPADHYAY, JONATHAN BENTZ,
     BRETT BODE, KURT BRORSEN, CALEB CARLIN, GALINA CHABAN, WEI CHEN,
     CHEOL HO CHOI, PAUL DAY, ALBERT DEFUSCO, NUWAN DESILVA, TIM DUDLEY,
     DMITRI FEDOROV, ALEX FINDLATER, GRAHAM FLETCHER, MARK FREITAG,
     KURT GLAESEMANN, ANASTASIA GUININA,
     DAN KEMP, GRANT MERRILL, NORIYUKI MINEZAWA, JONATHAN MULLIN,
     TAKESHI NAGATA, SEAN NEDD, HEATHER NETZLOFF, BOSILJKA NJEGIC, RYAN OLSON,
     MIKE PAK, BUU PHAM,
     SPENCER PRUITT, LUKE ROSKOP, JIM SHOEMAKER, LYUDMILA SLIPCHENKO,
     TONY SMITH, SAROM SOK LEANG, JIE SONG, TETSUYA TAKETSUGU, SIMON WEBB,
     PENG XU, SOOHAENG YOO, FEDERICO ZAHARIEV

  ADDITIONAL CODE HAS BEEN PROVIDED BY COLLABORATORS IN OTHER GROUPS:
     IOWA STATE UNIVERSITY:
          JOE IVANIC, AARON WEST, LAIMUTIS BYTAUTAS, KLAUS RUEDENBERG
     UNIVERSITY OF TOKYO: KIMIHIKO HIRAO, TAKAHITO NAKAJIMA,
          TAKAO TSUNEDA, MUNEAKI KAMIYA, SUSUMU YANAGISAWA,
          KIYOSHI YAGI, MAHITO CHIBA, SEIKEN TOKURA, NAOAKI KAWAKAMI
     UNIVERSITY OF AARHUS: FRANK JENSEN
     UNIVERSITY OF IOWA: VISVALDAS KAIRYS, HUI LI
     NATIONAL INST. OF STANDARDS AND TECHNOLOGY: WALT STEVENS, DAVID GARMER
     UNIVERSITY OF PISA: BENEDETTA MENNUCCI, JACOPO TOMASI
     UNIVERSITY OF MEMPHIS: HENRY KURTZ, PRAKASHAN KORAMBATH
     UNIVERSITY OF ALBERTA: TOBY ZENG, MARIUSZ KLOBUKOWSKI
     UNIVERSITY OF NEW ENGLAND: MARK SPACKMAN
     MIE UNIVERSITY: HIROAKI UMEDA
     NAT. INST. OF ADVANCED INDUSTRIAL SCIENCE AND TECHNOLOGY: KAZUO KITAURA
     MICHIGAN STATE UNIVERSITY:
          KAROL KOWALSKI, MARTA WLOCH, JEFFREY GOUR, JESSE LUTZ,
          WEI LI, PIOTR PIECUCH
     UNIVERSITY OF SILESIA: MONIKA MUSIAL, STANISLAW KUCHARSKI
     FACULTES UNIVERSITAIRES NOTRE-DAME DE LA PAIX:
          OLIVIER QUINET, BENOIT CHAMPAGNE
     UNIVERSITY OF CALIFORNIA - SANTA BARBARA: BERNARD KIRTMAN
     INSTITUTE FOR MOLECULAR SCIENCE:
          KAZUYA ISHIMURA, MICHIO KATOUDA, AND SHIGERU NAGASE
     UNIVERSITY OF NOTRE DAME: ANNA POMOGAEVA, DAN CHIPMAN
     KYUSHU UNIVERSITY:
          HARUYUKI NAKANO,
          FENG LONG GU, JACEK KORCHOWIEC, MARCIN MAKOWSKI, AND YURIKO AOKI,
          HIROTOSHI MORI AND EISAKU MIYOSHI
     PENNSYLVANIA STATE UNIVERSITY:
          TZVETELIN IORDANOV, CHET SWALINA, JONATHAN SKONE,
          SHARON HAMMES-SCHIFFER
     WASEDA UNIVERSITY:
          MASATO KOBAYASHI, TOMOKO AKAMA, TSUGUKI TOUMA,
          TAKESHI YOSHIKAWA, YASUHIRO IKABATA, JUNJI SEINO,
          YUYA NAKAJIMA, HIROMI NAKAI
     NANJING UNIVERSITY: SHUHUA LI
     UNIVERSITY OF NEBRASKA:
          PEIFENG SU, DEJUN SI, NANDUN THELLAMUREGE, YALI WANG, HUI LI
     UNIVERSITY OF ZURICH: ROBERTO PEVERATI, KIM BALDRIDGE
     N. COPERNICUS UNIVERSITY AND JACKSON STATE UNIVERSITY:
          MARIA BARYSZ
     UNIVERSITY OF COPENHAGEN: Jimmy Kromann, CASPER STEINMANN
     TOKYO INSTITUTE OF TECHNOLOGY: HIROYA NAKATA
     NAGOYA UNIVERSITY: YOSHIO NISHIMOTO, STEPHAN IRLE
     MOSCOW STATE UNIVERSITY: VLADIMIR MIRONOV

 EXECUTION OF GAMESS BEGUN Mon Jul 23 12:32:13 2018

            ECHO OF THE FIRST FEW INPUT CARDS -
 INPUT CARD>!   File created by the GAMESS Input Deck Generator Plugin for Avogadro         
 INPUT CARD> $BASIS GBASIS=N31 NGAUSS=6 NDFUNC=1 NPFUNC=1 $END                              
 INPUT CARD> $CONTRL SCFTYP=RHF RUNTYP=ENERGY $END                                          
 INPUT CARD> $CONTRL COORD=ZMT UNITS=BOHR NPRINT=9 $END                                     
 INPUT CARD> $DATA                                                                          
 INPUT CARD>Title                                                                           
 INPUT CARD>C1                                                                              
 INPUT CARD>H                                                                               
 INPUT CARD>H 1 1.4                                                                         
 INPUT CARD> $END                                                                           
    1000000 WORDS OF MEMORY AVAILABLE

     BASIS OPTIONS
     -------------
     GBASIS=N31          IGAUSS=       6      POLAR=POPN31  
     NDFUNC=       1     NFFUNC=       0     DIFFSP=       F
     NPFUNC=       1      DIFFS=       F     BASNAM=        


     RUN TITLE
     ---------
 Title                                                                           

 THE POINT GROUP OF THE MOLECULE IS C1      
 THE ORDER OF THE PRINCIPAL AXIS IS     0

 YOUR FULLY SUBSTITUTED Z-MATRIX IS
 H   
 H      1   0.7408481

 THE MOMENTS OF INERTIA ARE (AMU-ANGSTROM**2)
 IXX=     0.277   IYY=     0.277   IZZ=     0.000

 ATOM      ATOMIC                      COORDINATES (BOHR)
           CHARGE         X                   Y                   Z
 H           1.0     0.0000000000        0.0000000000       -0.7000000000
 H           1.0     0.0000000000        0.0000000000        0.7000000000

          INTERNUCLEAR DISTANCES (ANGS.)
          ------------------------------

                1 H          2 H     

   1 H       0.0000000    0.7408481 *
   2 H       0.7408481 *  0.0000000  

  * ... LESS THAN  3.000


     ATOMIC BASIS SET
     ----------------
 THE CONTRACTED PRIMITIVE FUNCTIONS HAVE BEEN UNNORMALIZED
 THE CONTRACTED BASIS FUNCTIONS ARE NOW NORMALIZED TO UNITY

  SHELL TYPE  PRIMITIVE        EXPONENT          CONTRACTION COEFFICIENT(S)

 H         

      1   S       1            18.7311370    0.033494604338
      1   S       2             2.8253944    0.234726953484
      1   S       3             0.6401217    0.813757326146

      2   S       4             0.1612778    1.000000000000

      3   P       5             1.1000000    1.000000000000

 H         

      4   S       6            18.7311370    0.033494604338
      4   S       7             2.8253944    0.234726953484
      4   S       8             0.6401217    0.813757326146

      5   S       9             0.1612778    1.000000000000

      6   P      10             1.1000000    1.000000000000

 TOTAL NUMBER OF BASIS SET SHELLS             =    6
 NUMBER OF CARTESIAN GAUSSIAN BASIS FUNCTIONS =   10
 NUMBER OF ELECTRONS                          =    2
 CHARGE OF MOLECULE                           =    0
 SPIN MULTIPLICITY                            =    1
 NUMBER OF OCCUPIED ORBITALS (ALPHA)          =    1
 NUMBER OF OCCUPIED ORBITALS (BETA )          =    1
 TOTAL NUMBER OF ATOMS                        =    2
 THE NUCLEAR REPULSION ENERGY IS        0.7142857143

 THIS MOLECULE IS RECOGNIZED AS BEING LINEAR,
 ORBITAL LZ DEGENERACY TOLERANCE ETOLLZ= 1.00E-06

     $CONTRL OPTIONS
     ---------------
 SCFTYP=RHF          RUNTYP=ENERGY       EXETYP=RUN     
 MPLEVL=       0     CITYP =NONE         CCTYP =NONE         VBTYP =NONE    
 DFTTYP=NONE         TDDFT =NONE    
 MULT  =       1     ICHARG=       0     NZVAR =       0     COORD =ZMT     
 PP    =NONE         RELWFN=NONE         LOCAL =NONE         NUMGRD=       F
 ISPHER=      -1     NOSYM =       0     MAXIT =      30     UNITS =BOHR    
 PLTORB=       F     MOLPLT=       F     AIMPAC=       F     FRIEND=        
 NPRINT=       9     IREST =       0     GEOM  =INPUT   
 NORMF =       0     NORMP =       0     ITOL  =      20     ICUT  =       9
 INTTYP=BEST         GRDTYP=BEST         QMTTOL= 1.0E-06

     $SYSTEM OPTIONS
     ---------------
  REPLICATED MEMORY=     1000000 WORDS (ON EVERY NODE).
 DISTRIBUTED MEMDDI=           0 MILLION WORDS IN AGGREGATE,
 MEMDDI DISTRIBUTED OVER   1 PROCESSORS IS           0 WORDS/PROCESSOR.
 TOTAL MEMORY REQUESTED ON EACH PROCESSOR=     1000000 WORDS.
 TIMLIM=      525600.00 MINUTES, OR     365.0 DAYS.
 PARALL= F  BALTYP=  DLB     KDIAG=    0  COREFL= F
 MXSEQ2=     300 MXSEQ3=     150  mem10=         0

          ----------------
          PROPERTIES INPUT
          ----------------

     MOMENTS            FIELD           POTENTIAL          DENSITY
 IEMOM =       1   IEFLD =       0   IEPOT =       0   IEDEN =       0
 WHERE =COMASS     WHERE =NUCLEI     WHERE =NUCLEI     WHERE =NUCLEI  
 OUTPUT=BOTH       OUTPUT=BOTH       OUTPUT=BOTH       OUTPUT=BOTH    
 IEMINT=       0   IEFINT=       0                     IEDINT=       0
                                                       MORB  =       0
          EXTRAPOLATION IN EFFECT
          SOSCF IN EFFECT
 ORBITAL PRINTING OPTION: NPREO=     1    10     2     1

     -------------------------------
     INTEGRAL TRANSFORMATION OPTIONS
     -------------------------------
     NWORD  =            0
     CUTOFF = 1.0E-09     MPTRAN =       0
     DIRTRF =       F     AOINTS =DUP     

          ----------------------
          INTEGRAL INPUT OPTIONS
          ----------------------
 NOPK  =       1 NORDER=       0 SCHWRZ=       F

   --- ENCODED Z MATRIX ---
 COORD  TYPE   I   J   K   L   M   N
    1      1    2   1

 THE DETERMINANT OF THE G MATRIX IS 10**(     0)

     ------------------------------------------
     THE POINT GROUP IS C1 , NAXIS= 0, ORDER= 1
     ------------------------------------------

     DIMENSIONS OF THE SYMMETRY SUBSPACES ARE
 A   =   10

 ..... DONE SETTING UP THE RUN .....
 STEP CPU TIME =     0.00 TOTAL CPU TIME =          0.0 (      0.0 MIN)
 TOTAL WALL CLOCK TIME=          0.0 SECONDS, CPU UTILIZATION IS     0.00%

          ********************
          1 ELECTRON INTEGRALS
          ********************
 ...... END OF ONE-ELECTRON INTEGRALS ......
 STEP CPU TIME =     0.00 TOTAL CPU TIME =          0.0 (      0.0 MIN)
 TOTAL WALL CLOCK TIME=          0.0 SECONDS, CPU UTILIZATION IS     0.00%

          -------------
          GUESS OPTIONS
          -------------
          GUESS =HUCKEL            NORB  =       0          NORDER=       0
          MIX   =       F          PRTMO =       F          PUNMO =       F
          TOLZ  = 1.0E-08          TOLE  = 1.0E-05
          SYMDEN=       F          PURIFY=       F

 INITIAL GUESS ORBITALS GENERATED BY HUCKEL   ROUTINE.
 HUCKEL GUESS REQUIRES      2162 WORDS.

 SYMMETRIES FOR INITIAL GUESS ORBITALS FOLLOW.   BOTH SET(S).
     1 ORBITALS ARE OCCUPIED (    0 CORE ORBITALS).
     1=A        2=A        3=A        4=A        5=A        6=A        7=A   
     8=A        9=A       10=A   
 ...... END OF INITIAL ORBITAL SELECTION ......
 STEP CPU TIME =     0.00 TOTAL CPU TIME =          0.0 (      0.0 MIN)
 TOTAL WALL CLOCK TIME=          0.0 SECONDS, CPU UTILIZATION IS     0.00%

                    ----------------------
                    AO INTEGRAL TECHNOLOGY
                    ----------------------
     S,P,L SHELL ROTATED AXIS INTEGRALS, REPROGRAMMED BY
        KAZUYA ISHIMURA (IMS) AND JOSE SIERRA (SYNSTAR).
     S,P,D,L SHELL ROTATED AXIS INTEGRALS PROGRAMMED BY
        KAZUYA ISHIMURA (INSTITUTE FOR MOLECULAR SCIENCE).
     S,P,D,F,G SHELL TO TOTAL QUARTET ANGULAR MOMENTUM SUM 5,
        ERIC PROGRAM BY GRAHAM FLETCHER (ELORET AND NASA ADVANCED
        SUPERCOMPUTING DIVISION, AMES RESEARCH CENTER).
     S,P,D,F,G,L SHELL GENERAL RYS QUADRATURE PROGRAMMED BY
        MICHEL DUPUIS (PACIFIC NORTHWEST NATIONAL LABORATORY).

          --------------------
          2 ELECTRON INTEGRALS
          --------------------

 THE -PK- OPTION IS OFF, THE INTEGRALS ARE NOT IN SUPERMATRIX FORM.
 STORING   15000 INTEGRALS/RECORD ON DISK, USING 12 BYTES/INTEGRAL.
 TWO ELECTRON INTEGRAL EVALUATION REQUIRES   89377 WORDS OF MEMORY.
 II,JST,KST,LST =  1  1  1  1 NREC =         1 INTLOC =    1
 II,JST,KST,LST =  2  1  1  1 NREC =         1 INTLOC =    2
 II,JST,KST,LST =  3  1  1  1 NREC =         1 INTLOC =    7
 II,JST,KST,LST =  4  1  1  1 NREC =         1 INTLOC =   34
 II,JST,KST,LST =  5  1  1  1 NREC =         1 INTLOC =   84
 II,JST,KST,LST =  6  1  1  1 NREC =         1 INTLOC =  169
 TOTAL NUMBER OF NONZERO TWO-ELECTRON INTEGRALS =                 512
          1 INTEGRAL RECORDS WERE STORED ON DISK FILE  8.
  ...... END OF TWO-ELECTRON INTEGRALS .....
 STEP CPU TIME =     0.01 TOTAL CPU TIME =          0.0 (      0.0 MIN)
 TOTAL WALL CLOCK TIME=          0.0 SECONDS, CPU UTILIZATION IS    50.00%

          --------------------------
                 RHF SCF CALCULATION
          --------------------------

     NUCLEAR ENERGY =         0.7142857143
     MAXIT =   30     NPUNCH=    2
     EXTRAP=T  DAMP=F  SHIFT=F  RSTRCT=F  DIIS=F  DEM=F  SOSCF=T
     DENSITY MATRIX CONV=  1.00E-05
     SOSCF WILL OPTIMIZE       9 ORBITAL ROTATIONS, SOGTOL=   0.250
     MEMORY REQUIRED FOR RHF ITERS=     30876 WORDS.

 ITER EX DEM     TOTAL ENERGY        E CHANGE  DENSITY CHANGE     ORB. GRAD
   1  0  0       -1.1187437479    -1.1187437479   0.057687797   0.000000000
          ---------------START SECOND ORDER SCF---------------
   2  1  0       -1.1309776866    -0.0122339387   0.008824540   0.014690927
   3  2  0       -1.1312770124    -0.0002993259   0.001613031   0.002228351
   4  3  0       -1.1312843467    -0.0000073342   0.000000700   0.000005141
   5  4  0       -1.1312843467    -0.0000000000   0.000000157   0.000000486

          -----------------
          DENSITY CONVERGED
          -----------------
     TIME TO FORM FOCK OPERATORS=       0.0 SECONDS (       0.0 SEC/ITER)
     TIME TO SOLVE SCF EQUATIONS=       0.0 SECONDS (       0.0 SEC/ITER)

 FINAL RHF ENERGY IS       -1.1312843467 AFTER   5 ITERATIONS

 LZ VALUE ANALYSIS FOR THE MOS
 ----------------------------------------
 MO     1 (    1) HAS LZ(WEIGHT)= 0.00(100.0%) 
 MO     2 (    2) HAS LZ(WEIGHT)= 0.00(100.0%) 
 MO     3 (    3) HAS LZ(WEIGHT)= 0.00(100.0%) 
 MO     4 (    4) HAS LZ(WEIGHT)= 0.00(100.0%) 
 MO     5 (    5) HAS LZ(WEIGHT)=-1.00( 50.0%)  1.00( 50.0%) 
 MO     6 (    5) HAS LZ(WEIGHT)=-1.00( 50.0%)  1.00( 50.0%) 
 MO     7 (    6) HAS LZ(WEIGHT)= 0.00(100.0%) 
 MO     8 (    7) HAS LZ(WEIGHT)=-1.00( 50.0%)  1.00( 50.0%) 
 MO     9 (    7) HAS LZ(WEIGHT)=-1.00( 50.0%)  1.00( 50.0%) 
 MO    10 (    8) HAS LZ(WEIGHT)= 0.00(100.0%) 

          ------------
          EIGENVECTORS
          ------------

                      1          2          3          4          5
                   -0.5947     0.2393     0.7715     1.3098     1.9592
                     A          A          A          A          A   
    1  H  1  S    0.318259   0.120418   0.746082   0.882010  -0.000000
    2  H  1  S    0.275398   1.718477  -0.677406  -1.392468  -0.000000
    3  H  1  X    0.000000   0.000000   0.000000   0.000000   0.554738
    4  H  1  Y    0.000000   0.000000   0.000000   0.000000  -0.255585
    5  H  1  Z    0.018262   0.002371   0.035784  -0.281535  -0.000000
    6  H  2  S    0.318259  -0.120418   0.746082  -0.882010  -0.000000
    7  H  2  S    0.275398  -1.718477  -0.677406   1.392468  -0.000000
    8  H  2  X    0.000000   0.000000   0.000000   0.000000   0.554738
    9  H  2  Y    0.000000   0.000000   0.000000   0.000000  -0.255585
   10  H  2  Z   -0.018262   0.002371  -0.035784  -0.281535  -0.000000

                      6          7          8          9         10
                    1.9592     2.7046     2.9302     2.9302     4.5303
                     A          A          A          A          A   
    1  H  1  S    0.000000   0.386119  -0.000000   0.000000   1.445536
    2  H  1  S    0.000000  -0.186592  -0.000000   0.000000   0.162355
    3  H  1  X    0.255585  -0.000000  -0.413071  -0.766332   0.000000
    4  H  1  Y    0.554738  -0.000000   0.766332  -0.413071   0.000000
    5  H  1  Z    0.000000  -0.647490  -0.000000   0.000000   1.576529
    6  H  2  S    0.000000   0.386119  -0.000000   0.000000  -1.445536
    7  H  2  S    0.000000  -0.186592  -0.000000   0.000000  -0.162355
    8  H  2  X    0.255585  -0.000000   0.413071   0.766332   0.000000
    9  H  2  Y    0.554738  -0.000000  -0.766332   0.413071   0.000000
   10  H  2  Z    0.000000   0.647490  -0.000000   0.000000   1.576529

          --------------
          DENSITY MATRIX
          --------------

                      1          2          3          4          5

    1  H  1  S    0.202578
    2  H  1  S    0.175296   0.151688
    3  H  1  X    0.000000   0.000000   0.000000
    4  H  1  Y    0.000000   0.000000   0.000000   0.000000
    5  H  1  Z    0.011624   0.010059   0.000000   0.000000   0.000667
    6  H  2  S    0.202578   0.175296   0.000000   0.000000   0.011624
    7  H  2  S    0.175296   0.151688   0.000000   0.000000   0.010059
    8  H  2  X    0.000000   0.000000   0.000000   0.000000   0.000000
    9  H  2  Y    0.000000   0.000000   0.000000   0.000000   0.000000
   10  H  2  Z   -0.011624  -0.010059   0.000000   0.000000  -0.000667

                      6          7          8          9         10

    6  H  2  S    0.202578
    7  H  2  S    0.175296   0.151688
    8  H  2  X    0.000000   0.000000   0.000000
    9  H  2  Y    0.000000   0.000000   0.000000   0.000000
   10  H  2  Z   -0.011624  -0.010059   0.000000   0.000000   0.000667
 ...... END OF RHF CALCULATION ......
 STEP CPU TIME =     0.00 TOTAL CPU TIME =          0.0 (      0.0 MIN)
 TOTAL WALL CLOCK TIME=          0.0 SECONDS, CPU UTILIZATION IS    50.00%

     ----------------------------------------------------------------
     PROPERTY VALUES FOR THE RHF   SELF-CONSISTENT FIELD WAVEFUNCTION
     ----------------------------------------------------------------

          -----------------
          ENERGY COMPONENTS
          -----------------

         WAVEFUNCTION NORMALIZATION =       1.0000000000

                ONE ELECTRON ENERGY =      -2.5018201927
                TWO ELECTRON ENERGY =       0.6562501317
           NUCLEAR REPULSION ENERGY =       0.7142857143
                                      ------------------
                       TOTAL ENERGY =      -1.1312843467

 ELECTRON-ELECTRON POTENTIAL ENERGY =       0.6562501317
  NUCLEUS-ELECTRON POTENTIAL ENERGY =      -3.6293582659
   NUCLEUS-NUCLEUS POTENTIAL ENERGY =       0.7142857143
                                      ------------------
             TOTAL POTENTIAL ENERGY =      -2.2588224199
               TOTAL KINETIC ENERGY =       1.1275380732
                 VIRIAL RATIO (V/T) =       2.0033225251

  ...... PI ENERGY ANALYSIS ......

 ENERGY ANALYSIS:
            FOCK ENERGY=     -1.1893197509
          BARE H ENERGY=     -2.5018201927
     ELECTRONIC ENERGY =     -1.8455699718
         KINETIC ENERGY=      1.1275380732
          N-N REPULSION=      0.7142857143
           TOTAL ENERGY=     -1.1312842575
        SIGMA PART(1+2)=     -1.8455699718
               (K,V1,2)=      1.1275380732     -3.6293582659      0.6562502209
           PI PART(1+2)=      0.0000000000
               (K,V1,2)=      0.0000000000      0.0000000000      0.0000000000
  SIGMA SKELETON, ERROR=     -1.1312842575      0.0000000000
             MIXED PART= 0.00000E+00 0.00000E+00 0.00000E+00 0.00000E+00
 ...... END OF PI ENERGY ANALYSIS ......

          -----------------------------------------
          LOWDIN ORBITAL (VO(I,J)**2)*SIGN(VO(I,J))
          -----------------------------------------

                      1          2          3          4          5

                   -0.5947     0.2393     0.7715     1.3098     1.9592

    1  H  1  S    0.234210   0.072195   0.228761   0.259702  -0.000000
    2  H  1  S    0.257235   0.373122  -0.239164  -0.125304  -0.000000
    3  H  1  X    0.000000   0.000000  -0.000000   0.000000  -0.412448
    4  H  1  Y   -0.000000   0.000000  -0.000000  -0.000000   0.087552
    5  H  1  Z    0.008555  -0.054683   0.032075  -0.114994  -0.000000
    6  H  2  S    0.234210  -0.072195   0.228761  -0.259702   0.000000
    7  H  2  S    0.257235  -0.373122  -0.239164   0.125304   0.000000
    8  H  2  X   -0.000000   0.000000  -0.000000   0.000000  -0.412448
    9  H  2  Y   -0.000000   0.000000  -0.000000  -0.000000   0.087552
   10  H  2  Z   -0.008555  -0.054683  -0.032075  -0.114994  -0.000000

                      6          7          8          9         10

                    1.9592     2.7046     2.9302     2.9302     4.5303

    1  H  1  S   -0.000000  -0.037029  -0.000000  -0.000000   0.168103
    2  H  1  S   -0.000000   0.003601  -0.000000  -0.000000   0.001574
    3  H  1  X    0.087552  -0.000000   0.112567  -0.387433   0.000000
    4  H  1  Y    0.412448   0.000000  -0.387433  -0.112567  -0.000000
    5  H  1  Z   -0.000000   0.459370  -0.000000   0.000000   0.330323
    6  H  2  S   -0.000000  -0.037029   0.000000  -0.000000  -0.168103
    7  H  2  S   -0.000000   0.003601  -0.000000  -0.000000  -0.001574
    8  H  2  X    0.087552   0.000000  -0.112567   0.387433   0.000000
    9  H  2  Y    0.412448   0.000000   0.387433   0.112567  -0.000000
   10  H  2  Z   -0.000000  -0.459370  -0.000000   0.000000   0.330323

          ------------------------
          LOWDIN BOND ORDER MATRIX
          ------------------------

                      1          2          3          4          5

    1  H  1  S    0.468420
    2  H  1  S    0.000000   0.514469
    3  H  1  X    0.000000   0.000000   0.000000
    4  H  1  Y    0.000000   0.000000   0.000000   0.000000
    5  H  1  Z    0.000000   0.000000   0.000000   0.000000   0.017111
    6  H  2  S    0.000000   0.000000   0.000000   0.000000   0.000000
    7  H  2  S    0.000000   0.000000   0.000000   0.000000   0.000000
    8  H  2  X    0.000000   0.000000   0.000000   0.000000   0.000000
    9  H  2  Y    0.000000   0.000000   0.000000   0.000000   0.000000
   10  H  2  Z    0.000000   0.000000   0.000000   0.000000   0.000000

                      6          7          8          9         10

    6  H  2  S    0.468420
    7  H  2  S    0.000000   0.514469
    8  H  2  X    0.000000   0.000000   0.000000
    9  H  2  Y    0.000000   0.000000   0.000000   0.000000
   10  H  2  Z    0.000000   0.000000   0.000000   0.000000   0.017111

          ---------------------------------------
          MULLIKEN AND LOWDIN POPULATION ANALYSES
          ---------------------------------------

     AO MULLIKEN POPULATIONS IN EACH MOLECULAR ORBITAL

                      1

                  2.000000

    1             0.504699
    2             0.487344
    3             0.000000
    4             0.000000
    5             0.007957
    6             0.504699
    7             0.487344
    8             0.000000
    9             0.000000
   10             0.007957

     ATOMIC MULLIKEN POPULATION IN EACH MOLECULAR ORBITAL

                      1

                  2.000000

    1             1.000000
    2             1.000000

               ----- POPULATIONS IN EACH AO -----
                             MULLIKEN      LOWDIN
              1  H  1  S      0.50470     0.46842
              2  H  1  S      0.48734     0.51447
              3  H  1  X      0.00000     0.00000
              4  H  1  Y      0.00000     0.00000
              5  H  1  Z      0.00796     0.01711
              6  H  2  S      0.50470     0.46842
              7  H  2  S      0.48734     0.51447
              8  H  2  X      0.00000     0.00000
              9  H  2  Y      0.00000     0.00000
             10  H  2  Z      0.00796     0.01711

          ----- MULLIKEN ATOMIC OVERLAP POPULATIONS -----
          (OFF-DIAGONAL ELEMENTS NEED TO BE MULTIPLIED BY 2)

             1           2

    1    0.5857236
    2    0.4142764   0.5857236

          TOTAL MULLIKEN AND LOWDIN ATOMIC POPULATIONS
       ATOM         MULL.POP.    CHARGE          LOW.POP.     CHARGE
    1 H             1.000000   -0.000000         1.000000   -0.000000
    2 H             1.000000   -0.000000         1.000000   -0.000000

          -------------------------------
          BOND ORDER AND VALENCE ANALYSIS     BOND ORDER THRESHOLD=0.050
          -------------------------------

                   BOND                       BOND                       BOND
  ATOM PAIR DIST  ORDER      ATOM PAIR DIST  ORDER      ATOM PAIR DIST  ORDER
    1   2  0.741  1.000

                       TOTAL       BONDED        FREE
      ATOM            VALENCE     VALENCE     VALENCE
    1 H                 1.000       1.000      -0.000
    2 H                 1.000       1.000      -0.000

          ---------------------
          ELECTROSTATIC MOMENTS
          ---------------------

 POINT   1           X           Y           Z (BOHR)    CHARGE
                 0.000000    0.000000    0.000000       -0.00 (A.U.)
         DX          DY          DZ         /D/  (DEBYE)
     0.000000    0.000000    0.000000    0.000000
 ...... END OF PROPERTY EVALUATION ......
 STEP CPU TIME =     0.00 TOTAL CPU TIME =          0.0 (      0.0 MIN)
 TOTAL WALL CLOCK TIME=          0.0 SECONDS, CPU UTILIZATION IS    50.00%
               580000  WORDS OF DYNAMIC MEMORY USED
 EXECUTION OF GAMESS TERMINATED NORMALLY Mon Jul 23 12:32:13 2018
 DDI: 263640 bytes (0.3 MB / 0 MWords) used by master data server.

 ----------------------------------------
 CPU timing information for all processes
 ========================================
 0: 0.09 + 0.16 = 0.25
 ----------------------------------------
 ddikick.x: exited gracefully.
----- accounting info -----
Files used on the master node labodang001 were:
-rw-rw-r-- 1 jnicolas jnicolas    2538 Jul 23 12:32 /tmp/rhf_test.dat
-rw-rw-r-- 1 jnicolas jnicolas     239 Jul 23 12:32 /tmp/rhf_test.F05
-rw-rw-r-- 1 jnicolas jnicolas  180016 Jul 23 12:32 /tmp/rhf_test.F08
-rw-rw-r-- 1 jnicolas jnicolas 1799600 Jul 23 12:32 /tmp/rhf_test.F10
Mon Jul 23 12:32:16 EDT 2018
0.0u 0.0s 0:03.13 2.2% 0+0k 248+16io 0pf+0w
